 Entering Gaussian System, Link 0=g09
 Input=PCLrockRev.com
 Output=PCLrockRev.log
 Initial command:
 /home/olga/g09/l1.exe /home/olga/scratch/Gau-20790.inp -scrdir=/home/olga/scratch/
 Entering Link 1 = /home/olga/g09/l1.exe PID=     20792.
  
 Copyright (c) 1988,1990,1992,1993,1995,1998,2003,2009,2010,
            Gaussian, Inc.  All Rights Reserved.
  
 This is part of the Gaussian(R) 09 program.  It is based on
 the Gaussian(R) 03 system (copyright 2003, Gaussian, Inc.),
 the Gaussian(R) 98 system (copyright 1998, Gaussian, Inc.),
 the Gaussian(R) 94 system (copyright 1995, Gaussian, Inc.),
 the Gaussian 92(TM) system (copyright 1992, Gaussian, Inc.),
 the Gaussian 90(TM) system (copyright 1990, Gaussian, Inc.),
 the Gaussian 88(TM) system (copyright 1988, Gaussian, Inc.),
 the Gaussian 86(TM) system (copyright 1986, Carnegie Mellon
 University), and the Gaussian 82(TM) system (copyright 1983,
 Carnegie Mellon University). Gaussian is a federally registered
 trademark of Gaussian, Inc.
  
 This software contains proprietary and confidential information,
 including trade secrets, belonging to Gaussian, Inc.
  
 This software is provided under written license and may be
 used, copied, transmitted, or stored only in accord with that
 written license.
  
 The following legend is applicable only to US Government
 contracts under FAR:
  
                    RESTRICTED RIGHTS LEGEND
  
 Use, reproduction and disclosure by the US Government is
 subject to restrictions as set forth in subparagraphs (a)
 and (c) of the Commercial Computer Software - Restricted
 Rights clause in FAR 52.227-19.
  
 Gaussian, Inc.
 340 Quinnipiac St., Bldg. 40, Wallingford CT 06492
  
  
 ---------------------------------------------------------------
 Warning -- This program may not be used in any manner that
 competes with the business of Gaussian, Inc. or will provide
 assistance to any competitor of Gaussian, Inc.  The licensee
 of this program is prohibited from giving any competitor of
 Gaussian, Inc. access to this program.  By using this program,
 the user acknowledges that Gaussian, Inc. is engaged in the
 business of creating and licensing software in the field of
 computational chemistry and represents and warrants to the
 licensee that it is not a competitor of Gaussian, Inc. and that
 it will not use this program in any manner prohibited above.
 ---------------------------------------------------------------
  
 Cite this work as:
 Gaussian 09, Revision B.01,
 M. J. Frisch, G. W. Trucks, H. B. Schlegel, G. E. Scuseria, 
 M. A. Robb, J. R. Cheeseman, G. Scalmani, V. Barone, B. Mennucci, 
 G. A. Petersson, H. Nakatsuji, M. Caricato, X. Li, H. P. Hratchian, 
 A. F. Izmaylov, J. Bloino, G. Zheng, J. L. Sonnenberg, M. Hada, 
 M. Ehara, K. Toyota, R. Fukuda, J. Hasegawa, M. Ishida, T. Nakajima, 
 Y. Honda, O. Kitao, H. Nakai, T. Vreven, J. A. Montgomery, Jr., 
 J. E. Peralta, F. Ogliaro, M. Bearpark, J. J. Heyd, E. Brothers, 
 K. N. Kudin, V. N. Staroverov, T. Keith, R. Kobayashi, J. Normand, 
 K. Raghavachari, A. Rendell, J. C. Burant, S. S. Iyengar, J. Tomasi, 
 M. Cossi, N. Rega, J. M. Millam, M. Klene, J. E. Knox, J. B. Cross, 
 V. Bakken, C. Adamo, J. Jaramillo, R. Gomperts, R. E. Stratmann, 
 O. Yazyev, A. J. Austin, R. Cammi, C. Pomelli, J. W. Ochterski, 
 R. L. Martin, K. Morokuma, V. G. Zakrzewski, G. A. Voth, 
 P. Salvador, J. J. Dannenberg, S. Dapprich, A. D. Daniels, 
 O. Farkas, J. B. Foresman, J. V. Ortiz, J. Cioslowski, 
 and D. J. Fox, Gaussian, Inc., Wallingford CT, 2010.
 
 ******************************************
 Gaussian 09:  EM64L-G09RevB.01 12-Aug-2010
                20-Aug-2016 
 ******************************************
 %Chk=Me2C2O2PClES
 %Mem=6000MB
 %nprocs=4
 Will use up to    4 processors via shared memory.
 ----------------------------------------------------------------------
 #P mp2=(full)/aug-cc-pVTZ opt=(Z-matrix,verytight) geom=(angle,dihedra
 l) MaxDisk=600GB
 ----------------------------------------------------------------------
 1/7=1,10=7,18=40,38=1/1,3;
 2/9=220,12=2,17=6,18=5,29=3,40=1/2;
 3/5=16,6=1,7=10,11=9,16=1,25=1,30=1,71=1/1,2,3;
 4//1;
 5/5=2,38=5/2;
 8/6=4,10=90/1;
 9/15=2,16=-3/6;
 10/5=1/2;
 6/7=2,8=2,9=2,10=2/1;
 7/12=2,29=1/1,2,3,16;
 1/7=1,10=7,18=40/3(2);
 2/9=220,29=3/2;
 99//99;
 2/9=220,29=3/2;
 3/5=16,6=1,7=10,11=9,16=1,25=1,30=1,71=1/1,2,3;
 4/5=5,16=3/1;
 5/5=2,38=5/2;
 8/6=4,10=90/1;
 9/15=2,16=-3/6;
 10/5=1/2;
 7/12=2/1,2,3,16;
 1/7=1,18=40/3(-8);
 2/9=220,29=3/2;
 6/7=2,8=2,9=2,10=2/1;
 99//99;
 Leave Link    1 at Sat Aug 20 16:20:45 2016, MaxMem=  786432000 cpu:       0.1
 (Enter /home/olga/g09/l101.exe)
 -----------------------------------------
 (CH3)2C2O2PCl C1-Revised test B5=30.fixed
 -----------------------------------------
 Symbolic Z-matrix:
 Charge =  0 Multiplicity = 1
 X1
 X2                   1     1. 
 X3                   2    R2       1     90. 
 X4                   3     1.       2     90.      1    B1       0
 O                    2    R4       3     90.      1     90.      0
 O                    2    R5       3     90.      5     180.     0
 P                    2    R6       5     90.      1    B4       0
 Cl                   7    R7       2    A6       1     30.      0
 C                    3    R8       2    A7       4    -90.      0
 C                    3    R9       4     90.      9     180.     0
 C                    9    R10      3    A9       5    B8       0
 C                    10   R11      3    A10      6    B9       0
 H                    11   R12      9    A11      3    B10      0
 H                    11   R13      9    A12      3    B11      0
 H                    11   R14      9    A13      3    B12      0
 H                    12   R15      10   A14      3    B13      0
 H                    12   R16      10   A15      3    B14      0
 H                    12   R17      10   A16      3    B15      0
       Variables:
  R2                    1.29058                  
  R4                    1.19453                  
  R5                    1.19453                  
  R6                    1.12794                  
  R7                    2.10057                  
  R8                    0.6675                   
  R9                    0.6675                   
  R10                   1.47125                  
  R11                   1.47125                  
  R12                   1.08553                  
  R13                   1.088                    
  R14                   1.0879                   
  R15                   1.08553                  
  R16                   1.088                    
  R17                   1.0879                   
  A6                  103.129                    
  A7                   90.                       
  A9                  132.164                    
  A10                 132.164                    
  A11                 110.382                    
  A12                 110.326                    
  A13                 110.387                    
  A14                 110.382                    
  A15                 110.326                    
  A16                 110.387                    
  B1                    0.                       
  B4                   70.368                    
  B8                  180.                       
  B9                  180.                       
  B10                   1.587                    
  B11                 121.805                    
  B12                -118.754                    
  B13                  -1.587                    
  B14                -121.805                    
  B15                 118.754                    
 
 NAtoms=     14 NQM=     14 NQMF=      0 NMic=      0 NMicF=      0 NTot=     14.
                    Isotopes and Nuclear Properties:
 (Nuclear quadrupole moments (NQMom) in fm**2, nuclear magnetic moments (NMagM)
  in nuclear magnetons)
  Atom         1           2           3           4           5           6           7           8           9          10
 IAtWgt=          16          16          31          35          12          12          12          12           1           1
 AtmWgt=  15.9949146  15.9949146  30.9737634  34.9688527  12.0000000  12.0000000  12.0000000  12.0000000   1.0078250   1.0078250
 NucSpn=           0           0           1           3           0           0           0           0           1           1
 AtZEff=   0.0000000   0.0000000   0.0000000   0.0000000   0.0000000   0.0000000   0.0000000   0.0000000   0.0000000   0.0000000
 NQMom=    0.0000000   0.0000000   0.0000000  -8.1650000   0.0000000   0.0000000   0.0000000   0.0000000   0.0000000   0.0000000
 NMagM=    0.0000000   0.0000000   1.1316000   0.8218740   0.0000000   0.0000000   0.0000000   0.0000000   2.7928460   2.7928460
  Atom        11          12          13          14
 IAtWgt=           1           1           1           1
 AtmWgt=   1.0078250   1.0078250   1.0078250   1.0078250
 NucSpn=           1           1           1           1
 AtZEff=   0.0000000   0.0000000   0.0000000   0.0000000
 NQMom=    0.0000000   0.0000000   0.0000000   0.0000000
 NMagM=    2.7928460   2.7928460   2.7928460   2.7928460
 Leave Link  101 at Sat Aug 20 16:20:46 2016, MaxMem=  786432000 cpu:       0.1
 (Enter /home/olga/g09/l103.exe)
 GradGradGradGradGradGradGradGradGradGradGradGradGradGradGradGradGradGrad
 Berny optimization.
 Initialization pass.
                       ----------------------------
                       !    Initial Parameters    !
                       ! (Angstroms and Degrees)  !
 ----------------------                            ----------------------
 !      Name          Value   Derivative information (Atomic Units)     !
 ------------------------------------------------------------------------
 !       R2          1.2906   estimate D2E/DX2                          !
 !       R4          1.1945   estimate D2E/DX2                          !
 !       R5          1.1945   estimate D2E/DX2                          !
 !       R6          1.1279   estimate D2E/DX2                          !
 !       R7          2.1006   estimate D2E/DX2                          !
 !       R8          0.6675   estimate D2E/DX2                          !
 !       R9          0.6675   estimate D2E/DX2                          !
 !       R10         1.4713   estimate D2E/DX2                          !
 !       R11         1.4713   estimate D2E/DX2                          !
 !       R12         1.0855   estimate D2E/DX2                          !
 !       R13         1.088    estimate D2E/DX2                          !
 !       R14         1.0879   estimate D2E/DX2                          !
 !       R15         1.0855   estimate D2E/DX2                          !
 !       R16         1.088    estimate D2E/DX2                          !
 !       R17         1.0879   estimate D2E/DX2                          !
 !       A6        103.129    estimate D2E/DX2                          !
 !       A7         90.0      estimate D2E/DX2                          !
 !       A9        132.164    estimate D2E/DX2                          !
 !       A10       132.164    estimate D2E/DX2                          !
 !       A11       110.382    estimate D2E/DX2                          !
 !       A12       110.326    estimate D2E/DX2                          !
 !       A13       110.387    estimate D2E/DX2                          !
 !       A14       110.382    estimate D2E/DX2                          !
 !       A15       110.326    estimate D2E/DX2                          !
 !       A16       110.387    estimate D2E/DX2                          !
 !       B1          0.0      estimate D2E/DX2                          !
 !       B4         70.368    estimate D2E/DX2                          !
 !       B8        180.0      estimate D2E/DX2                          !
 !       B9        180.0      estimate D2E/DX2                          !
 !       B10         1.587    estimate D2E/DX2                          !
 !       B11       121.805    estimate D2E/DX2                          !
 !       B12      -118.754    estimate D2E/DX2                          !
 !       B13        -1.587    estimate D2E/DX2                          !
 !       B14      -121.805    estimate D2E/DX2                          !
 !       B15       118.754    estimate D2E/DX2                          !
 ------------------------------------------------------------------------
 Trust Radius=3.00D-01 FncErr=1.00D-07 GrdErr=1.00D-07
 Number of steps in this run=     45 maximum allowed number of steps=    100.
 GradGradGradGradGradGradGradGradGradGradGradGradGradGradGradGradGradGrad
 Leave Link  103 at Sat Aug 20 16:20:46 2016, MaxMem=  786432000 cpu:       0.1
 (Enter /home/olga/g09/l202.exe)
 ---------------------------------------------------------------------------------------------------
                            Z-MATRIX (ANGSTROMS AND DEGREES)
   CD    Cent   Atom    N1       Length/X        N2       Alpha/Y        N3        Beta/Z          J
 ---------------------------------------------------------------------------------------------------
      1         X 
      2         X        1   1.000000(     1)
      3         X        2   1.290576(     2)      1   90.000(    18)
      4         X        3   1.000000(     3)      2   90.000(    19)      1    0.000(    34)      0
      5      1  O        2   1.194532(     4)      3   90.000(    20)      1   90.000(    35)      0
      6      2  O        2   1.194532(     5)      3   90.000(    21)      5  180.000(    36)      0
      7      3  P        2   1.127936(     6)      5   90.000(    22)      1   70.368(    37)      0
      8      4  Cl       7   2.100571(     7)      2  103.129(    23)      1   30.000(    38)      0
      9      5  C        3   0.667503(     8)      2   90.000(    24)      4  -90.000(    39)      0
     10      6  C        3   0.667503(     9)      4   90.000(    25)      9  180.000(    40)      0
     11      7  C        9   1.471250(    10)      3  132.164(    26)      5  180.000(    41)      0
     12      8  C       10   1.471250(    11)      3  132.164(    27)      6  180.000(    42)      0
     13      9  H       11   1.085528(    12)      9  110.382(    28)      3    1.587(    43)      0
     14     10  H       11   1.087996(    13)      9  110.326(    29)      3  121.805(    44)      0
     15     11  H       11   1.087901(    14)      9  110.387(    30)      3 -118.754(    45)      0
     16     12  H       12   1.085528(    15)     10  110.382(    31)      3   -1.587(    46)      0
     17     13  H       12   1.087996(    16)     10  110.326(    32)      3 -121.805(    47)      0
     18     14  H       12   1.087901(    17)     10  110.387(    33)      3  118.754(    48)      0
 ---------------------------------------------------------------------------------------------------
                         Z-Matrix orientation:                         
 ---------------------------------------------------------------------
 Center     Atomic      Atomic             Coordinates (Angstroms)
 Number     Number       Type             X           Y           Z
 ---------------------------------------------------------------------
      1         -1           0        0.000000    0.000000    0.000000
      2         -1           0        0.000000    0.000000    1.000000
      3         -1           0        1.290576    0.000000    1.000000
      4         -1           0        1.290576    0.000000    0.000000
      5          8           0        0.000000   -1.194532    1.000000
      6          8           0        0.000000    1.194532    1.000000
      7         15           0       -1.062369    0.000000    0.621039
      8         17           0       -0.916549   -1.022832   -1.207882
      9          6           0        1.290576   -0.667503    1.000000
     10          6           0        1.290576    0.667503    1.000000
     11          6           0        2.381105   -1.655087    1.000000
     12          6           0        2.381105    1.655087    1.000000
     13          1           0        3.344121   -1.154908    1.028181
     14          1           0        2.300301   -2.307331    1.867054
     15          1           0        2.332729   -2.273091    0.105987
     16          1           0        3.344121    1.154908    1.028181
     17          1           0        2.300301    2.307331    1.867054
     18          1           0        2.332729    2.273091    0.105987
 ---------------------------------------------------------------------
                    Distance matrix (angstroms):
                    1          2          3          4          5
     1  X    0.000000
     2  X    1.000000   0.000000
     3  X    1.632662   1.290576   0.000000
     4  X    1.290576   1.632662   1.000000   0.000000
     5  O    1.557853   1.194532   1.758549   2.022991   0.000000
     6  O    1.557853   1.194532   1.758549   2.022991   2.389064
     7  P    1.230576   1.127936   2.383267   2.433524   1.642908
     8  Cl   1.828996   2.600190   3.285168   2.715983   2.396723
     9  C    1.763844   1.452979   0.667503   1.202315   1.394039
    10  C    1.763844   1.452979   0.667503   1.202315   2.265560
    11  C    3.067405   2.899823   1.982061   2.220038   2.425237
    12  C    3.067405   2.899823   1.982061   2.220038   3.713488
    13  H    3.684306   3.538043   2.356195   2.570606   3.344474
    14  H    3.755137   3.371490   2.663664   3.135158   2.698423
    15  H    3.258804   3.377548   2.655614   2.502850   2.721061
    16  H    3.684306   3.538043   2.356195   2.570606   4.087029
    17  H    3.755137   3.371490   2.663664   3.135158   4.278576
    18  H    3.258804   3.377548   2.655614   2.502850   4.273791
                    6          7          8          9         10
     6  O    0.000000
     7  P    1.642908   0.000000
     8  Cl   3.260599   2.100571   0.000000
     9  C    2.265560   2.474979   3.142037   0.000000
    10  C    1.394039   2.474979   3.550123   1.335006   0.000000
    11  C    3.713488   3.839328   4.018583   1.471250   2.565868
    12  C    2.425237   3.839328   4.787538   2.565868   1.471250
    13  H    4.087029   4.573481   4.813598   2.110783   2.745728
    14  H    4.278576   4.264256   4.631770   2.111957   3.258982
    15  H    4.273791   4.118120   3.721183   2.112642   3.245371
    16  H    3.344474   4.573481   5.281651   2.745728   2.110783
    17  H    2.698423   4.264256   5.558178   3.258982   2.111957
    18  H    2.721061   4.118120   4.811150   3.245371   2.112642
                   11         12         13         14         15
    11  C    0.000000
    12  C    3.310174   0.000000
    13  H    1.085528   2.970567   0.000000
    14  H    1.087996   4.056978   1.766733   0.000000
    15  H    1.087901   4.028918   1.767396   1.761699   0.000000
    16  H    2.970567   1.085528   2.309817   3.712192   3.691143
    17  H    4.056978   1.087996   3.712192   4.614662   4.907410
    18  H    4.028918   1.087901   3.691143   4.907410   4.546182
                   16         17         18
    16  H    0.000000
    17  H    1.766733   0.000000
    18  H    1.767396   1.761699   0.000000
                           Interatomic angles:
       X1-X2-X3= 90.           X2-X3-X4= 90.           X1-X2-O5= 90.    
       X3-X2-O5= 90.           X1-X2-O6= 90.           X3-X2-O6= 90.    
       O5-X2-O6=180.           X1-X2-P7= 70.368        X3-X2-P7=160.368 
       O5-X2-P7= 90.           O6-X2-P7= 90.          X2-P7-Cl8=103.129 
       X2-X3-C9= 90.           X4-X3-C9= 90.          X2-X3-C10= 90.    
      X4-X3-C10= 90.          C9-X3-C10=180.          X3-C9-C11=132.164 
     X3-C10-C12=132.164      C9-C11-H13=110.382      C9-C11-H14=110.326 
    H13-C11-H14=108.7492     C9-C11-H15=110.387     H13-C11-H15=108.8161
    H14-C11-H15=108.1221    C10-C12-H16=110.382     C10-C12-H17=110.326 
    H16-C12-H17=108.7492    C10-C12-H18=110.387     H16-C12-H18=108.8161
    H17-C12-H18=108.1221
                              Dihedral angles:
     X4-X3-X2-X1=   0.      O5-X2-X3-X1=  90.      O5-X2-X3-X4=  90. 
     O6-X2-X3-X1= -90.      O6-X2-X3-X4= -90.      P7-X2-X3-X1=   0. 
     P7-X2-X3-X4=   0.      P7-X2-O5-X1=  70.37    P7-X2-O5-X3= 160.3
     P7-X2-O6-X1= -70.37    P7-X2-O6-X3=-160.37   Cl8-P7-X2-X1=  30. 
    Cl8-P7-X2-X3=  30.     Cl8-P7-X2-O5= -60.     Cl8-P7-X2-O6= 120. 
     C9-X3-X2-X1= -90.      C9-X3-X4-X2=  90.      C9-X3-X2-O5=   0. 
     C9-X3-X2-O6= 180.      C9-X3-X2-P7= -90.     C10-X3-X2-X1=  90. 
    C10-X3-X4-X2= -90.     C10-X3-X2-O5= 180.     C10-X3-X2-O6=   0. 
    C10-X3-X2-P7=  90.     C11-C9-X3-X2= 180.     C11-C9-X3-X4=  90. 
   C12-C10-X3-X2= 180.    C12-C10-X3-X4= -90.    H13-C11-C9-X3=   1.5
   H14-C11-C9-X3= 121.8  H14-C11-H13-C9=-121.16  H15-C11-C9-X3=-118.7
  H15-C11-H13-C9= 121.28 H15-C11-H14-C9=-120.8 H15-C11-H14-H13= 118. 
  H16-C12-C10-X3=  -1.59 H17-C12-C10-X3=-121.8 H17-C12-H16-C10= 121.1
  H18-C12-C10-X3= 118.75H18-C12-H16-C10=-121.28H18-C12-H17-C10= 120.8
 H18-C12-H17-H16=-118.  
 Stoichiometry    C4H6ClO2P
 Framework group  C1[X(C4H6ClO2P)]
 Deg. of freedom    36
 Full point group                 C1      NOp   1
 Largest Abelian subgroup         C1      NOp   1
 Largest concise Abelian subgroup C1      NOp   1
                         Standard orientation:                         
 ---------------------------------------------------------------------
 Center     Atomic      Atomic             Coordinates (Angstroms)
 Number     Number       Type             X           Y           Z
 ---------------------------------------------------------------------
      1          8           0       -0.384995    0.673654   -0.884559
      2          8           0        0.417978   -1.486570   -0.255040
      3         15           0       -1.034415   -0.812642   -0.623171
      4         17           0       -2.066647    0.347156    0.791665
      5          6           0        0.864986    0.734401   -0.270392
      6          6           0        1.313687   -0.472729    0.081383
      7          6           0        1.439604    2.081397   -0.128999
      8          6           0        2.552166   -0.911706    0.743233
      9          1           0        2.420738    2.027367    0.332333
     10          1           0        1.537060    2.554925   -1.103683
     11          1           0        0.795891    2.705233    0.487436
     12          1           0        3.197077   -0.061200    0.940971
     13          1           0        3.088065   -1.617715    0.112282
     14          1           0        2.323880   -1.405485    1.685357
 ---------------------------------------------------------------------
 Rotational constants (GHZ):      2.2835305      1.2224859      0.9827083
 Leave Link  202 at Sat Aug 20 16:20:46 2016, MaxMem=  786432000 cpu:       0.0
 (Enter /home/olga/g09/l301.exe)
 Standard basis: Aug-CC-pVTZ (5D, 7F)
 Ernie: Thresh=  0.10000D-02 Tol=  0.10000D-05 Strict=F.
 Ernie:  43 primitive shells out of 374 were deleted.
 There are   514 symmetry adapted basis functions of A   symmetry.
 Integral buffers will be    131072 words long.
 Raffenetti 1 integral format.
 Two-electron integral symmetry is turned on.
   514 basis functions,   823 primitive gaussians,   598 cartesian basis functions
    39 alpha electrons       39 beta electrons
       nuclear repulsion energy       560.8350457704 Hartrees.
 IExCor=    0 DFT=F Ex=HF Corr=None ExCW=0 ScaHFX=  1.000000
 ScaDFX=  1.000000  1.000000  1.000000  1.000000 ScalE2=  1.000000  1.000000
 IRadAn=      0 IRanWt=     -1 IRanGd=            0 ICorTp=0
 NAtoms=   14 NActive=   14 NUniq=   14 SFac= 1.00D+00 NAtFMM=   50 NAOKFM=F Big=F
 Leave Link  301 at Sat Aug 20 16:20:46 2016, MaxMem=  786432000 cpu:       0.2
 (Enter /home/olga/g09/l302.exe)
 NPDir=0 NMtPBC=     1 NCelOv=     1 NCel=       1 NClECP=     1 NCelD=      1
         NCelK=      1 NCelE2=     1 NClLst=     1 CellRange=     0.0.
 One-electron integrals computed using PRISM.
 NBasis=   514 RedAO= T  NBF=   514
 NBsUse=   514 1.00D-06 NBFU=   514
 Leave Link  302 at Sat Aug 20 16:20:47 2016, MaxMem=  786432000 cpu:       1.7
 (Enter /home/olga/g09/l303.exe)
 DipDrv:  MaxL=1.
 Leave Link  303 at Sat Aug 20 16:20:47 2016, MaxMem=  786432000 cpu:       0.4
 (Enter /home/olga/g09/l401.exe)
 Harris functional with IExCor=  205 diagonalized for initial guess.
 ExpMin= 2.53D-02 ExpMax= 4.56D+05 ExpMxC= 1.44D+03 IAcc=3 IRadAn=         0 AccDes= 0.00D+00
 HarFok:  IExCor=  205 AccDes= 0.00D+00 IRadAn=         0 IDoV= 1
 ScaDFX=  1.000000  1.000000  1.000000  1.000000
 FoFCou: FMM=F IPFlag=           0 FMFlag=      100000 FMFlg1=           0
         NFxFlg=           0 DoJE=T BraDBF=F KetDBF=T FulRan=T
         Omega=  0.000000  0.000000  1.000000  0.000000  0.000000 ICntrl=     500 IOpCl=  0
         NMat0=    1 NMatS0=    1 NMatT0=    0 NMatD0=    1 NMtDS0=    0 NMtDT0=    0
         I1Cent=           4 NGrid=           0.
 Petite list used in FoFCou.
 Harris En= -1104.67425913638    
 Initial guess orbital symmetries:
       Occupied  (A) (A) (A) (A) (A) (A) (A) (A) (A) (A) (A) (A)
                 (A) (A) (A) (A) (A) (A) (A) (A) (A) (A) (A) (A)
                 (A) (A) (A) (A) (A) (A) (A) (A) (A) (A) (A) (A)
                 (A) (A) (A)
       Virtual   (A) (A) (A) (A) (A) (A) (A) (A) (A) (A) (A) (A)
                 (A) (A) (A) (A) (A) (A) (A) (A) (A) (A) (A) (A)
                 (A) (A) (A) (A) (A) (A) (A) (A) (A) (A) (A) (A)
                 (A) (A) (A) (A) (A) (A) (A) (A) (A) (A) (A) (A)
                 (A) (A) (A) (A) (A) (A) (A) (A) (A) (A) (A) (A)
                 (A) (A) (A) (A) (A) (A) (A) (A) (A) (A) (A) (A)
                 (A) (A) (A) (A) (A) (A) (A) (A) (A) (A) (A) (A)
                 (A) (A) (A) (A) (A) (A) (A) (A) (A) (A) (A) (A)
                 (A) (A) (A) (A) (A) (A) (A) (A) (A) (A) (A) (A)
                 (A) (A) (A) (A) (A) (A) (A) (A) (A) (A) (A) (A)
                 (A) (A) (A) (A) (A) (A) (A) (A) (A) (A) (A) (A)
                 (A) (A) (A) (A) (A) (A) (A) (A) (A) (A) (A) (A)
                 (A) (A) (A) (A) (A) (A) (A) (A) (A) (A) (A) (A)
                 (A) (A) (A) (A) (A) (A) (A) (A) (A) (A) (A) (A)
                 (A) (A) (A) (A) (A) (A) (A) (A) (A) (A) (A) (A)
                 (A) (A) (A) (A) (A) (A) (A) (A) (A) (A) (A) (A)
                 (A) (A) (A) (A) (A) (A) (A) (A) (A) (A) (A) (A)
                 (A) (A) (A) (A) (A) (A) (A) (A) (A) (A) (A) (A)
                 (A) (A) (A) (A) (A) (A) (A) (A) (A) (A) (A) (A)
                 (A) (A) (A) (A) (A) (A) (A) (A) (A) (A) (A) (A)
                 (A) (A) (A) (A) (A) (A) (A) (A) (A) (A) (A) (A)
                 (A) (A) (A) (A) (A) (A) (A) (A) (A) (A) (A) (A)
                 (A) (A) (A) (A) (A) (A) (A) (A) (A) (A) (A) (A)
                 (A) (A) (A) (A) (A) (A) (A) (A) (A) (A) (A) (A)
                 (A) (A) (A) (A) (A) (A) (A) (A) (A) (A) (A) (A)
                 (A) (A) (A) (A) (A) (A) (A) (A) (A) (A) (A) (A)
                 (A) (A) (A) (A) (A) (A) (A) (A) (A) (A) (A) (A)
                 (A) (A) (A) (A) (A) (A) (A) (A) (A) (A) (A) (A)
                 (A) (A) (A) (A) (A) (A) (A) (A) (A) (A) (A) (A)
                 (A) (A) (A) (A) (A) (A) (A) (A) (A) (A) (A) (A)
                 (A) (A) (A) (A) (A) (A) (A) (A) (A) (A) (A) (A)
                 (A) (A) (A) (A) (A) (A) (A) (A) (A) (A) (A) (A)
                 (A) (A) (A) (A) (A) (A) (A) (A) (A) (A) (A) (A)
                 (A) (A) (A) (A) (A) (A) (A) (A) (A) (A) (A) (A)
                 (A) (A) (A) (A) (A) (A) (A) (A) (A) (A) (A) (A)
                 (A) (A) (A) (A) (A) (A) (A) (A) (A) (A) (A) (A)
                 (A) (A) (A) (A) (A) (A) (A) (A) (A) (A) (A) (A)
                 (A) (A) (A) (A) (A) (A) (A) (A) (A) (A) (A) (A)
                 (A) (A) (A) (A) (A) (A) (A) (A) (A) (A) (A) (A)
                 (A) (A) (A) (A) (A) (A) (A)
 The electronic state of the initial guess is 1-A.
 Leave Link  401 at Sat Aug 20 16:20:49 2016, MaxMem=  786432000 cpu:       8.0
 (Enter /home/olga/g09/l502.exe)
 Closed shell SCF:
 Requested convergence on RMS density matrix=1.00D-08 within 128 cycles.
 Requested convergence on MAX density matrix=1.00D-06.
 Requested convergence on             energy=1.00D-06.
 No special actions if energy rises.
 Using DIIS extrapolation, IDIIS=  1040.
 Integral symmetry usage will be decided dynamically.
 IEnd=     1098846 IEndB=     1098846 NGot=   786432000 MDV=   785707997
 LenX=   785707997 LenY=   785349795
 Fock matrices will be formed incrementally for  20 cycles.
 Cycle   1  Pass 0  IDiag  1:
 FoFCou: FMM=F IPFlag=           0 FMFlag=      100000 FMFlg1=           0
         NFxFlg=           0 DoJE=F BraDBF=F KetDBF=F FulRan=T
         Omega=  0.000000  0.000000  1.000000  0.000000  0.000000 ICntrl=       0 IOpCl=  0
         NMat0=    1 NMatS0=    1 NMatT0=    0 NMatD0=    1 NMtDS0=    0 NMtDT0=    0
         I1Cent=           0 NGrid=           0.
 Symmetry not used in FoFCou.
 E= -1104.71621500653    
 DIIS: error= 2.40D-02 at cycle   1 NSaved=   1.
 NSaved= 1 IEnMin= 1 EnMin= -1104.71621500653     IErMin= 1 ErrMin= 2.40D-02
 ErrMax= 2.40D-02 EMaxC= 1.00D-01 BMatC= 9.16D-01 BMatP= 9.16D-01
 IDIUse=3 WtCom= 7.60D-01 WtEn= 2.40D-01
 Coeff-Com:  0.100D+01
 Coeff-En:   0.100D+01
 Coeff:      0.100D+01
 Gap=     0.573 Goal=   None    Shift=    0.000
 GapD=    0.573 DampG=2.000 DampE=0.500 DampFc=1.0000 IDamp=-1.
 RMSDP=2.41D-03 MaxDP=1.31D-01              OVMax= 1.20D-01
 Cycle   2  Pass 0  IDiag  1:
 RMSU=  1.68D-03    CP:  9.59D-01
 E= -1105.02992026379     Delta-E=       -0.313705257257 Rises=F Damp=F
 DIIS: error= 9.28D-03 at cycle   2 NSaved=   2.
 NSaved= 2 IEnMin= 2 EnMin= -1105.02992026379     IErMin= 2 ErrMin= 9.28D-03
 ErrMax= 9.28D-03 EMaxC= 1.00D-01 BMatC= 7.59D-02 BMatP= 9.16D-01
 IDIUse=3 WtCom= 9.07D-01 WtEn= 9.28D-02
 Coeff-Com:  0.142D+00 0.858D+00
 Coeff-En:   0.000D+00 0.100D+01
 Coeff:      0.128D+00 0.872D+00
 Gap=     0.389 Goal=   None    Shift=    0.000
 RMSDP=8.91D-04 MaxDP=5.50D-02 DE=-3.14D-01 OVMax= 5.75D-02
 Cycle   3  Pass 0  IDiag  1:
 RMSU=  6.23D-04    CP:  9.47D-01  1.03D+00
 E= -1105.08452916410     Delta-E=       -0.054608900312 Rises=F Damp=F
 DIIS: error= 2.42D-03 at cycle   3 NSaved=   3.
 NSaved= 3 IEnMin= 3 EnMin= -1105.08452916410     IErMin= 3 ErrMin= 2.42D-03
 ErrMax= 2.42D-03 EMaxC= 1.00D-01 BMatC= 1.03D-02 BMatP= 7.59D-02
 IDIUse=3 WtCom= 9.76D-01 WtEn= 2.42D-02
 Coeff-Com: -0.177D-01 0.239D+00 0.779D+00
 Coeff-En:   0.000D+00 0.000D+00 0.100D+01
 Coeff:     -0.172D-01 0.233D+00 0.784D+00
 Gap=     0.364 Goal=   None    Shift=    0.000
 RMSDP=2.33D-04 MaxDP=1.32D-02 DE=-5.46D-02 OVMax= 1.70D-02
 Cycle   4  Pass 0  IDiag  1:
 RMSU=  1.30D-04    CP:  9.50D-01  1.06D+00  8.71D-01
 E= -1105.09233780254     Delta-E=       -0.007808638436 Rises=F Damp=F
 DIIS: error= 5.37D-04 at cycle   4 NSaved=   4.
 NSaved= 4 IEnMin= 4 EnMin= -1105.09233780254     IErMin= 4 ErrMin= 5.37D-04
 ErrMax= 5.37D-04 EMaxC= 1.00D-01 BMatC= 2.63D-04 BMatP= 1.03D-02
 IDIUse=3 WtCom= 9.95D-01 WtEn= 5.37D-03
 Coeff-Com: -0.654D-02 0.264D-01 0.152D+00 0.828D+00
 Coeff-En:   0.000D+00 0.000D+00 0.000D+00 0.100D+01
 Coeff:     -0.651D-02 0.263D-01 0.152D+00 0.829D+00
 Gap=     0.359 Goal=   None    Shift=    0.000
 RMSDP=4.51D-05 MaxDP=2.06D-03 DE=-7.81D-03 OVMax= 5.54D-03
 Cycle   5  Pass 0  IDiag  1:
 RMSU=  2.96D-05    CP:  9.50D-01  1.06D+00  8.89D-01  1.03D+00
 E= -1105.09267043107     Delta-E=       -0.000332628527 Rises=F Damp=F
 DIIS: error= 2.07D-04 at cycle   5 NSaved=   5.
 NSaved= 5 IEnMin= 5 EnMin= -1105.09267043107     IErMin= 5 ErrMin= 2.07D-04
 ErrMax= 2.07D-04 EMaxC= 1.00D-01 BMatC= 4.15D-05 BMatP= 2.63D-04
 IDIUse=3 WtCom= 9.98D-01 WtEn= 2.07D-03
 Coeff-Com:  0.132D-02-0.258D-01-0.854D-01 0.105D+00 0.100D+01
 Coeff-En:   0.000D+00 0.000D+00 0.000D+00 0.000D+00 0.100D+01
 Coeff:      0.132D-02-0.257D-01-0.853D-01 0.105D+00 0.100D+01
 Gap=     0.360 Goal=   None    Shift=    0.000
 RMSDP=3.31D-05 MaxDP=2.59D-03 DE=-3.33D-04 OVMax= 3.86D-03
 Cycle   6  Pass 0  IDiag  1:
 RMSU=  1.29D-05    CP:  9.50D-01  1.07D+00  8.95D-01  1.16D+00  1.30D+00
 E= -1105.09274932884     Delta-E=       -0.000078897774 Rises=F Damp=F
 DIIS: error= 7.56D-05 at cycle   6 NSaved=   6.
 NSaved= 6 IEnMin= 6 EnMin= -1105.09274932884     IErMin= 6 ErrMin= 7.56D-05
 ErrMax= 7.56D-05 EMaxC= 1.00D-01 BMatC= 3.49D-06 BMatP= 4.15D-05
 IDIUse=1 WtCom= 1.00D+00 WtEn= 0.00D+00
 Coeff-Com:  0.864D-03-0.613D-02-0.267D-01-0.583D-01 0.947D-01 0.996D+00
 Coeff:      0.864D-03-0.613D-02-0.267D-01-0.583D-01 0.947D-01 0.996D+00
 Gap=     0.360 Goal=   None    Shift=    0.000
 RMSDP=9.61D-06 MaxDP=3.91D-04 DE=-7.89D-05 OVMax= 1.89D-03
 Initial convergence to 1.0D-05 achieved.  Increase integral accuracy.
 Cycle   7  Pass 1  IDiag  1:
 E= -1105.09276066370     Delta-E=       -0.000011334862 Rises=F Damp=F
 DIIS: error= 3.26D-05 at cycle   1 NSaved=   1.
 NSaved= 1 IEnMin= 1 EnMin= -1105.09276066370     IErMin= 1 ErrMin= 3.26D-05
 ErrMax= 3.26D-05 EMaxC= 1.00D-01 BMatC= 5.67D-07 BMatP= 5.67D-07
 IDIUse=1 WtCom= 1.00D+00 WtEn= 0.00D+00
 Coeff-Com:  0.100D+01
 Coeff:      0.100D+01
 Gap=     0.360 Goal=   None    Shift=    0.000
 RMSDP=9.61D-06 MaxDP=3.91D-04 DE=-1.13D-05 OVMax= 7.51D-04
 Cycle   8  Pass 1  IDiag  1:
 RMSU=  2.43D-06    CP:  1.00D+00
 E= -1105.09276251955     Delta-E=       -0.000001855846 Rises=F Damp=F
 DIIS: error= 2.18D-05 at cycle   2 NSaved=   2.
 NSaved= 2 IEnMin= 2 EnMin= -1105.09276251955     IErMin= 2 ErrMin= 2.18D-05
 ErrMax= 2.18D-05 EMaxC= 1.00D-01 BMatC= 1.86D-07 BMatP= 5.67D-07
 IDIUse=1 WtCom= 1.00D+00 WtEn= 0.00D+00
 Coeff-Com:  0.842D-01 0.916D+00
 Coeff:      0.842D-01 0.916D+00
 Gap=     0.360 Goal=   None    Shift=    0.000
 RMSDP=1.68D-06 MaxDP=6.96D-05 DE=-1.86D-06 OVMax= 3.74D-04
 Cycle   9  Pass 1  IDiag  1:
 RMSU=  7.62D-07    CP:  1.00D+00  1.37D+00
 E= -1105.09276309266     Delta-E=       -0.000000573115 Rises=F Damp=F
 DIIS: error= 1.06D-05 at cycle   3 NSaved=   3.
 NSaved= 3 IEnMin= 3 EnMin= -1105.09276309266     IErMin= 3 ErrMin= 1.06D-05
 ErrMax= 1.06D-05 EMaxC= 1.00D-01 BMatC= 6.65D-08 BMatP= 1.86D-07
 IDIUse=1 WtCom= 1.00D+00 WtEn= 0.00D+00
 Coeff-Com: -0.464D+00-0.212D-02 0.147D+01
 Coeff:     -0.464D+00-0.212D-02 0.147D+01
 Gap=     0.360 Goal=   None    Shift=    0.000
 RMSDP=2.45D-06 MaxDP=9.57D-05 DE=-5.73D-07 OVMax= 5.41D-04
 Cycle  10  Pass 1  IDiag  1:
 RMSU=  3.23D-07    CP:  1.00D+00  2.05D+00  1.57D+00
 E= -1105.09276342185     Delta-E=       -0.000000329184 Rises=F Damp=F
 DIIS: error= 1.46D-06 at cycle   4 NSaved=   4.
 NSaved= 4 IEnMin= 4 EnMin= -1105.09276342185     IErMin= 4 ErrMin= 1.46D-06
 ErrMax= 1.46D-06 EMaxC= 1.00D-01 BMatC= 3.23D-09 BMatP= 6.65D-08
 IDIUse=1 WtCom= 1.00D+00 WtEn= 0.00D+00
 Coeff-Com: -0.154D+00-0.396D-01 0.473D+00 0.721D+00
 Coeff:     -0.154D+00-0.396D-01 0.473D+00 0.721D+00
 Gap=     0.360 Goal=   None    Shift=    0.000
 RMSDP=2.28D-07 MaxDP=9.31D-06 DE=-3.29D-07 OVMax= 4.11D-05
 Cycle  11  Pass 1  IDiag  1:
 RMSU=  9.42D-08    CP:  1.00D+00  2.10D+00  1.65D+00  1.05D+00
 E= -1105.09276342675     Delta-E=       -0.000000004900 Rises=F Damp=F
 DIIS: error= 5.09D-07 at cycle   5 NSaved=   5.
 NSaved= 5 IEnMin= 5 EnMin= -1105.09276342675     IErMin= 5 ErrMin= 5.09D-07
 ErrMax= 5.09D-07 EMaxC= 1.00D-01 BMatC= 2.82D-10 BMatP= 3.23D-09
 IDIUse=1 WtCom= 1.00D+00 WtEn= 0.00D+00
 Coeff-Com:  0.662D-01 0.593D-02-0.214D+00-0.277D-01 0.117D+01
 Coeff:      0.662D-01 0.593D-02-0.214D+00-0.277D-01 0.117D+01
 Gap=     0.360 Goal=   None    Shift=    0.000
 RMSDP=1.21D-07 MaxDP=5.18D-06 DE=-4.90D-09 OVMax= 1.62D-05
 Cycle  12  Pass 1  IDiag  1:
 RMSU=  4.16D-08    CP:  1.00D+00  2.11D+00  1.69D+00  1.22D+00  1.34D+00
 E= -1105.09276342752     Delta-E=       -0.000000000768 Rises=F Damp=F
 DIIS: error= 1.55D-07 at cycle   6 NSaved=   6.
 NSaved= 6 IEnMin= 6 EnMin= -1105.09276342752     IErMin= 6 ErrMin= 1.55D-07
 ErrMax= 1.55D-07 EMaxC= 1.00D-01 BMatC= 4.12D-11 BMatP= 2.82D-10
 IDIUse=1 WtCom= 1.00D+00 WtEn= 0.00D+00
 Coeff-Com:  0.329D-01 0.603D-02-0.105D+00-0.837D-01 0.269D+00 0.881D+00
 Coeff:      0.329D-01 0.603D-02-0.105D+00-0.837D-01 0.269D+00 0.881D+00
 Gap=     0.360 Goal=   None    Shift=    0.000
 RMSDP=3.68D-08 MaxDP=1.57D-06 DE=-7.68D-10 OVMax= 5.58D-06
 Cycle  13  Pass 1  IDiag  1:
 RMSU=  1.20D-08    CP:  1.00D+00  2.11D+00  1.70D+00  1.26D+00  1.47D+00
                    CP:  1.24D+00
 E= -1105.09276342762     Delta-E=       -0.000000000105 Rises=F Damp=F
 DIIS: error= 6.24D-08 at cycle   7 NSaved=   7.
 NSaved= 7 IEnMin= 7 EnMin= -1105.09276342762     IErMin= 7 ErrMin= 6.24D-08
 ErrMax= 6.24D-08 EMaxC= 1.00D-01 BMatC= 5.81D-12 BMatP= 4.12D-11
 IDIUse=1 WtCom= 1.00D+00 WtEn= 0.00D+00
 Coeff-Com: -0.899D-02-0.430D-03 0.293D-01 0.174D-02-0.171D+00 0.657D-01
 Coeff-Com:  0.108D+01
 Coeff:     -0.899D-02-0.430D-03 0.293D-01 0.174D-02-0.171D+00 0.657D-01
 Coeff:      0.108D+01
 Gap=     0.360 Goal=   None    Shift=    0.000
 RMSDP=1.79D-08 MaxDP=8.80D-07 DE=-1.05D-10 OVMax= 2.45D-06
 Cycle  14  Pass 1  IDiag  1:
 RMSU=  4.64D-09    CP:  1.00D+00  2.11D+00  1.70D+00  1.26D+00  1.51D+00
                    CP:  1.48D+00  1.35D+00
 E= -1105.09276342763     Delta-E=       -0.000000000009 Rises=F Damp=F
 DIIS: error= 2.40D-08 at cycle   8 NSaved=   8.
 NSaved= 8 IEnMin= 8 EnMin= -1105.09276342763     IErMin= 8 ErrMin= 2.40D-08
 ErrMax= 2.40D-08 EMaxC= 1.00D-01 BMatC= 7.50D-13 BMatP= 5.81D-12
 IDIUse=1 WtCom= 1.00D+00 WtEn= 0.00D+00
 Coeff-Com: -0.688D-02-0.979D-03 0.218D-01 0.113D-01-0.806D-01-0.107D+00
 Coeff-Com:  0.235D+00 0.927D+00
 Coeff:     -0.688D-02-0.979D-03 0.218D-01 0.113D-01-0.806D-01-0.107D+00
 Coeff:      0.235D+00 0.927D+00
 Gap=     0.360 Goal=   None    Shift=    0.000
 RMSDP=5.63D-09 MaxDP=2.64D-07 DE=-8.64D-12 OVMax= 9.58D-07
 SCF Done:  E(RHF) =  -1105.09276343     A.U. after   14 cycles
             Convg  =    0.5626D-08             -V/T =  2.0003
 KE= 1.104791946129D+03 PE=-3.743368511204D+03 EE= 9.726487558772D+02
 Leave Link  502 at Sat Aug 20 16:37:41 2016, MaxMem=  786432000 cpu:    4042.9
 (Enter /home/olga/g09/l801.exe)
 Range of M.O.s used for correlation:     1   514
 NBasis=   514 NAE=    39 NBE=    39 NFC=     0 NFV=     0
 NROrb=    514 NOA=    39 NOB=    39 NVA=   475 NVB=   475
 **** Warning!!: The largest alpha MO coefficient is  0.82710904D+02
 Leave Link  801 at Sat Aug 20 16:37:41 2016, MaxMem=  786432000 cpu:       0.1
 (Enter /home/olga/g09/l906.exe)
 FulOut=F Deriv=T AODrv=T NAtomX=    14
   MMem=           6  MDisk=          39 MDiskD=          39
  W3Min=    11987508 MinDsk=    17059811 NBas6D=         598
 NBas2D=      180517    NTT=      179101    LW2=     3500000
    MDV=   783429366 MDiskM=        6533 NBas2p=      177365
 Disk-based method using ON**2 memory for 39 occupieds at a time.
 Estimated scratch disk usage= 17237688218 words.
 IMap=   1   2   3   4   5   6   7   8   9  10  11  12  13  14  15  16  17  18  19  20
 IMap=  21  22  23  24  25  26  27  28  29  30  31  32  33  34  35  36  37  38  39
 Actual    scratch disk usage= 16487306650 words.
 JobTyp=1 Pass  1:  I=   1 to  39 NPSUse=  4 ParTrn=T ParDer=T DoDerP=T.
 Spin components of T(2) and E(2):
     alpha-alpha T2 =       0.6267055244D-01 E2=     -0.2094664284D+00
     alpha-beta  T2 =       0.3453066236D+00 E2=     -0.1269167256D+01
     beta-beta   T2 =       0.6267055244D-01 E2=     -0.2094664284D+00
 The integrals were generated   1 times.
 ANorm=    0.1212702655D+01
 E2 =    -0.1688100113D+01 EUMP2 =    -0.11067808635408D+04
 Leave Link  906 at Sat Aug 20 18:07:31 2016, MaxMem=  786432000 cpu:   20048.0
 (Enter /home/olga/g09/l1002.exe)
 Minotr:  Closed shell wavefunction.
          Computing MP2/KS-MP2 derivatives.
          Using Z-Vector for PSCF gradient.
          Skipping F1 and S1 gradient terms here.
          IDoAtm=11111111111111
          Direct CPHF calculation.
          Differentiating once with respect to electric field.
                with respect to dipole field.
          Differentiating once with respect to nuclear coordinates.
          Requested convergence is 1.0D-10 RMS, and 1.0D-09 maximum.
          NewPWx=F KeepS1=T KeepF1=T KeepIn=T MapXYZ=F SortEE=F KeepMc=T.
          MDV=     786431856 using IRadAn=       0.
          Solving linear equations separately, MaxMat=       0.
          There are     1 degrees of freedom in the 1st order CPHF.  IDoFFX=0.
 Petite list used in FoFDir.
 MinBra= 0 MaxBra= 3 Meth= 1.
 IRaf=       0 NMat=   1 IRICut=       1 DoRegI=T DoRafI=F ISym2E= 1 JSym2E=1.
 LinEq1:  Iter=  0 NonCon=     1 RMS=2.49D-03 Max=5.63D-02
 AX will form     1 AO Fock derivatives at one time.
 LinEq1:  Iter=  1 NonCon=     1 RMS=6.17D-04 Max=1.75D-02
 LinEq1:  Iter=  2 NonCon=     1 RMS=2.50D-04 Max=9.62D-03
 LinEq1:  Iter=  3 NonCon=     1 RMS=8.55D-05 Max=2.08D-03
 LinEq1:  Iter=  4 NonCon=     1 RMS=3.72D-05 Max=8.17D-04
 LinEq1:  Iter=  5 NonCon=     1 RMS=8.69D-06 Max=1.72D-04
 LinEq1:  Iter=  6 NonCon=     1 RMS=2.70D-06 Max=7.42D-05
 LinEq1:  Iter=  7 NonCon=     1 RMS=9.05D-07 Max=2.56D-05
 LinEq1:  Iter=  8 NonCon=     1 RMS=3.41D-07 Max=6.02D-06
 LinEq1:  Iter=  9 NonCon=     1 RMS=1.47D-07 Max=3.29D-06
 LinEq1:  Iter= 10 NonCon=     1 RMS=4.19D-08 Max=1.04D-06
 LinEq1:  Iter= 11 NonCon=     1 RMS=1.03D-08 Max=2.59D-07
 LinEq1:  Iter= 12 NonCon=     1 RMS=2.91D-09 Max=6.54D-08
 LinEq1:  Iter= 13 NonCon=     1 RMS=1.01D-09 Max=1.77D-08
 LinEq1:  Iter= 14 NonCon=     1 RMS=3.76D-10 Max=1.21D-08
 LinEq1:  Iter= 15 NonCon=     1 RMS=9.77D-11 Max=1.85D-09
 LinEq1:  Iter= 16 NonCon=     0 RMS=2.62D-11 Max=6.58D-10
 Linear equations converged to 1.000D-10 1.000D-09 after    16 iterations.
 End of Minotr Frequency-dependent properties file   721 does not exist.
 End of Minotr Frequency-dependent properties file   722 does not exist.
 Leave Link 1002 at Sat Aug 20 18:31:11 2016, MaxMem=  786432000 cpu:    5675.5
 (Enter /home/olga/g09/l601.exe)
 Copying SCF densities to generalized density rwf, IOpCl= 0 IROHF=0.
 **********************************************************************
            Population analysis using the SCF density.
 **********************************************************************
 Orbital symmetries:
       Occupied  (A) (A) (A) (A) (A) (A) (A) (A) (A) (A) (A) (A)
                 (A) (A) (A) (A) (A) (A) (A) (A) (A) (A) (A) (A)
                 (A) (A) (A) (A) (A) (A) (A) (A) (A) (A) (A) (A)
                 (A) (A) (A)
       Virtual   (A) (A) (A) (A) (A) (A) (A) (A) (A) (A) (A) (A)
                 (A) (A) (A) (A) (A) (A) (A) (A) (A) (A) (A) (A)
                 (A) (A) (A) (A) (A) (A) (A) (A) (A) (A) (A) (A)
                 (A) (A) (A) (A) (A) (A) (A) (A) (A) (A) (A) (A)
                 (A) (A) (A) (A) (A) (A) (A) (A) (A) (A) (A) (A)
                 (A) (A) (A) (A) (A) (A) (A) (A) (A) (A) (A) (A)
                 (A) (A) (A) (A) (A) (A) (A) (A) (A) (A) (A) (A)
                 (A) (A) (A) (A) (A) (A) (A) (A) (A) (A) (A) (A)
                 (A) (A) (A) (A) (A) (A) (A) (A) (A) (A) (A) (A)
                 (A) (A) (A) (A) (A) (A) (A) (A) (A) (A) (A) (A)
                 (A) (A) (A) (A) (A) (A) (A) (A) (A) (A) (A) (A)
                 (A) (A) (A) (A) (A) (A) (A) (A) (A) (A) (A) (A)
                 (A) (A) (A) (A) (A) (A) (A) (A) (A) (A) (A) (A)
                 (A) (A) (A) (A) (A) (A) (A) (A) (A) (A) (A) (A)
                 (A) (A) (A) (A) (A) (A) (A) (A) (A) (A) (A) (A)
                 (A) (A) (A) (A) (A) (A) (A) (A) (A) (A) (A) (A)
                 (A) (A) (A) (A) (A) (A) (A) (A) (A) (A) (A) (A)
                 (A) (A) (A) (A) (A) (A) (A) (A) (A) (A) (A) (A)
                 (A) (A) (A) (A) (A) (A) (A) (A) (A) (A) (A) (A)
                 (A) (A) (A) (A) (A) (A) (A) (A) (A) (A) (A) (A)
                 (A) (A) (A) (A) (A) (A) (A) (A) (A) (A) (A) (A)
                 (A) (A) (A) (A) (A) (A) (A) (A) (A) (A) (A) (A)
                 (A) (A) (A) (A) (A) (A) (A) (A) (A) (A) (A) (A)
                 (A) (A) (A) (A) (A) (A) (A) (A) (A) (A) (A) (A)
                 (A) (A) (A) (A) (A) (A) (A) (A) (A) (A) (A) (A)
                 (A) (A) (A) (A) (A) (A) (A) (A) (A) (A) (A) (A)
                 (A) (A) (A) (A) (A) (A) (A) (A) (A) (A) (A) (A)
                 (A) (A) (A) (A) (A) (A) (A) (A) (A) (A) (A) (A)
                 (A) (A) (A) (A) (A) (A) (A) (A) (A) (A) (A) (A)
                 (A) (A) (A) (A) (A) (A) (A) (A) (A) (A) (A) (A)
                 (A) (A) (A) (A) (A) (A) (A) (A) (A) (A) (A) (A)
                 (A) (A) (A) (A) (A) (A) (A) (A) (A) (A) (A) (A)
                 (A) (A) (A) (A) (A) (A) (A) (A) (A) (A) (A) (A)
                 (A) (A) (A) (A) (A) (A) (A) (A) (A) (A) (A) (A)
                 (A) (A) (A) (A) (A) (A) (A) (A) (A) (A) (A) (A)
                 (A) (A) (A) (A) (A) (A) (A) (A) (A) (A) (A) (A)
                 (A) (A) (A) (A) (A) (A) (A) (A) (A) (A) (A) (A)
                 (A) (A) (A) (A) (A) (A) (A) (A) (A) (A) (A) (A)
                 (A) (A) (A) (A) (A) (A) (A) (A) (A) (A) (A) (A)
                 (A) (A) (A) (A) (A) (A) (A)
 The electronic state is 1-A.
 Alpha  occ. eigenvalues -- -104.81173 -80.07779 -20.62280 -20.59354 -11.30638
 Alpha  occ. eigenvalues --  -11.30139 -11.24388 -11.24263 -10.53834  -8.00462
 Alpha  occ. eigenvalues --   -8.00332  -8.00318  -7.60370  -5.49594  -5.49586
 Alpha  occ. eigenvalues --   -5.49423  -1.47082  -1.38614  -1.10803  -1.07315
 Alpha  occ. eigenvalues --   -1.01382  -0.93132  -0.84260  -0.78723  -0.68505
 Alpha  occ. eigenvalues --   -0.68298  -0.62270  -0.61231  -0.59103  -0.58486
 Alpha  occ. eigenvalues --   -0.57542  -0.56626  -0.55710  -0.54701  -0.53698
 Alpha  occ. eigenvalues --   -0.45910  -0.42993  -0.40287  -0.33350
 Alpha virt. eigenvalues --    0.02628   0.03224   0.04145   0.04590   0.05517
 Alpha virt. eigenvalues --    0.05902   0.06075   0.06601   0.08045   0.08151
 Alpha virt. eigenvalues --    0.10333   0.11295   0.11458   0.11649   0.11981
 Alpha virt. eigenvalues --    0.12087   0.12953   0.13106   0.13526   0.14208
 Alpha virt. eigenvalues --    0.14952   0.15294   0.15774   0.17024   0.17352
 Alpha virt. eigenvalues --    0.17816   0.18599   0.18680   0.19211   0.19535
 Alpha virt. eigenvalues --    0.21323   0.21808   0.22134   0.23686   0.24161
 Alpha virt. eigenvalues --    0.25127   0.25354   0.25749   0.26492   0.27995
 Alpha virt. eigenvalues --    0.28487   0.28898   0.30364   0.30770   0.31096
 Alpha virt. eigenvalues --    0.31319   0.31967   0.32083   0.32997   0.34112
 Alpha virt. eigenvalues --    0.34722   0.35647   0.35879   0.36438   0.36681
 Alpha virt. eigenvalues --    0.36777   0.37536   0.37987   0.38392   0.39139
 Alpha virt. eigenvalues --    0.39629   0.40341   0.40529   0.41921   0.42122
 Alpha virt. eigenvalues --    0.43493   0.43644   0.44223   0.44611   0.44766
 Alpha virt. eigenvalues --    0.45193   0.45722   0.46755   0.47040   0.48311
 Alpha virt. eigenvalues --    0.49135   0.49292   0.49956   0.50817   0.51270
 Alpha virt. eigenvalues --    0.51862   0.52290   0.52906   0.53575   0.54030
 Alpha virt. eigenvalues --    0.54685   0.55079   0.55944   0.56699   0.57769
 Alpha virt. eigenvalues --    0.58416   0.61264   0.61608   0.62929   0.63109
 Alpha virt. eigenvalues --    0.63902   0.64367   0.64939   0.66910   0.67486
 Alpha virt. eigenvalues --    0.68623   0.69479   0.70866   0.71081   0.72597
 Alpha virt. eigenvalues --    0.74382   0.75021   0.76402   0.76613   0.77084
 Alpha virt. eigenvalues --    0.77613   0.78337   0.80213   0.80877   0.81474
 Alpha virt. eigenvalues --    0.82631   0.83418   0.83946   0.84931   0.85456
 Alpha virt. eigenvalues --    0.86143   0.87010   0.87350   0.87903   0.88873
 Alpha virt. eigenvalues --    0.89808   0.90197   0.90898   0.91380   0.92023
 Alpha virt. eigenvalues --    0.92324   0.92969   0.93817   0.94145   0.94741
 Alpha virt. eigenvalues --    0.95120   0.96189   0.97542   0.97749   0.98344
 Alpha virt. eigenvalues --    0.99285   0.99971   1.00799   1.01620   1.02014
 Alpha virt. eigenvalues --    1.02620   1.03235   1.04455   1.05272   1.05716
 Alpha virt. eigenvalues --    1.06380   1.06909   1.07210   1.08386   1.09047
 Alpha virt. eigenvalues --    1.10625   1.11354   1.12192   1.12437   1.13752
 Alpha virt. eigenvalues --    1.14896   1.15223   1.16186   1.16746   1.18284
 Alpha virt. eigenvalues --    1.18600   1.19243   1.19696   1.20885   1.21787
 Alpha virt. eigenvalues --    1.22913   1.24645   1.26514   1.27273   1.27847
 Alpha virt. eigenvalues --    1.29164   1.30384   1.31602   1.32436   1.33445
 Alpha virt. eigenvalues --    1.34502   1.35547   1.35837   1.38140   1.39334
 Alpha virt. eigenvalues --    1.39790   1.41168   1.41591   1.42285   1.43160
 Alpha virt. eigenvalues --    1.44869   1.45086   1.48192   1.48997   1.49383
 Alpha virt. eigenvalues --    1.50994   1.52129   1.53892   1.55542   1.56244
 Alpha virt. eigenvalues --    1.56816   1.58034   1.58884   1.59722   1.60954
 Alpha virt. eigenvalues --    1.61370   1.62118   1.63762   1.64352   1.65797
 Alpha virt. eigenvalues --    1.66159   1.66310   1.67857   1.68559   1.70041
 Alpha virt. eigenvalues --    1.70246   1.71830   1.73587   1.74877   1.75575
 Alpha virt. eigenvalues --    1.75863   1.76526   1.78415   1.78938   1.80669
 Alpha virt. eigenvalues --    1.82072   1.83889   1.85100   1.86197   1.87031
 Alpha virt. eigenvalues --    1.88924   1.90481   1.91539   1.92862   1.93870
 Alpha virt. eigenvalues --    1.94465   1.95741   1.97330   1.98939   1.99102
 Alpha virt. eigenvalues --    2.00637   2.01261   2.01879   2.05219   2.05722
 Alpha virt. eigenvalues --    2.06843   2.08307   2.09730   2.10442   2.12250
 Alpha virt. eigenvalues --    2.12932   2.13357   2.15862   2.16856   2.17524
 Alpha virt. eigenvalues --    2.19433   2.19521   2.20449   2.21070   2.25590
 Alpha virt. eigenvalues --    2.27665   2.28624   2.29068   2.29519   2.30587
 Alpha virt. eigenvalues --    2.32605   2.35287   2.36442   2.38603   2.39833
 Alpha virt. eigenvalues --    2.41866   2.45914   2.50087   2.50572   2.50864
 Alpha virt. eigenvalues --    2.53446   2.56383   2.58025   2.60862   2.63162
 Alpha virt. eigenvalues --    2.64057   2.66630   2.68998   2.70107   2.70664
 Alpha virt. eigenvalues --    2.73609   2.74001   2.75163   2.77588   2.80408
 Alpha virt. eigenvalues --    2.82447   2.83198   2.85904   2.90443   2.91226
 Alpha virt. eigenvalues --    2.95359   2.98076   3.01203   3.02333   3.04924
 Alpha virt. eigenvalues --    3.05910   3.07763   3.09648   3.10092   3.14873
 Alpha virt. eigenvalues --    3.16813   3.17978   3.19247   3.21836   3.22215
 Alpha virt. eigenvalues --    3.22631   3.24172   3.26532   3.27265   3.29280
 Alpha virt. eigenvalues --    3.31907   3.32486   3.33975   3.36037   3.38927
 Alpha virt. eigenvalues --    3.41953   3.43844   3.44243   3.47471   3.48539
 Alpha virt. eigenvalues --    3.51468   3.52257   3.53970   3.56399   3.58767
 Alpha virt. eigenvalues --    3.60279   3.61228   3.61341   3.62460   3.65630
 Alpha virt. eigenvalues --    3.66159   3.66883   3.67660   3.69557   3.70509
 Alpha virt. eigenvalues --    3.73418   3.75517   3.77403   3.79696   3.82419
 Alpha virt. eigenvalues --    3.83818   3.86979   3.87899   3.88856   3.91519
 Alpha virt. eigenvalues --    3.93976   3.94960   3.96154   3.96915   3.99002
 Alpha virt. eigenvalues --    4.01310   4.03647   4.04906   4.05498   4.07044
 Alpha virt. eigenvalues --    4.08292   4.10678   4.11367   4.12495   4.14511
 Alpha virt. eigenvalues --    4.15544   4.16116   4.18202   4.18541   4.20445
 Alpha virt. eigenvalues --    4.24214   4.25140   4.28224   4.34417   4.36912
 Alpha virt. eigenvalues --    4.37255   4.38462   4.40671   4.41307   4.44193
 Alpha virt. eigenvalues --    4.45894   4.50058   4.51509   4.56222   4.58737
 Alpha virt. eigenvalues --    4.61858   4.63431   4.68435   4.69095   4.73949
 Alpha virt. eigenvalues --    4.76275   4.77857   4.78941   4.79833   4.84344
 Alpha virt. eigenvalues --    4.85407   4.87506   4.89722   4.95621   4.96329
 Alpha virt. eigenvalues --    5.00973   5.01390   5.06778   5.08693   5.10125
 Alpha virt. eigenvalues --    5.11865   5.13253   5.15749   5.20582   5.24274
 Alpha virt. eigenvalues --    5.27095   5.29131   5.35845   5.38798   5.39336
 Alpha virt. eigenvalues --    5.49848   5.52970   5.55862   5.57402   5.59007
 Alpha virt. eigenvalues --    5.62036   5.63743   5.64972   5.65991   5.73594
 Alpha virt. eigenvalues --    5.82558   5.85535   5.92500   6.00517   6.02198
 Alpha virt. eigenvalues --    6.08480   6.13988   6.17117   6.17270   6.20051
 Alpha virt. eigenvalues --    6.25843   6.37070   6.46900   6.68533   6.69565
 Alpha virt. eigenvalues --    6.70977   6.75574   6.76400   6.80278   6.84071
 Alpha virt. eigenvalues --    6.92868   6.94753   6.95900   6.99843   7.02127
 Alpha virt. eigenvalues --    7.03485   7.06128   7.14520   7.19461   7.25783
 Alpha virt. eigenvalues --    7.27395   7.35117   7.40075   7.43042   7.47491
 Alpha virt. eigenvalues --    7.50366   7.58364   7.68000   7.70887   7.77812
 Alpha virt. eigenvalues --    7.98355   8.00736   8.25808   8.61890  14.23902
 Alpha virt. eigenvalues --   15.60175  16.68777  17.67224  19.52216  20.58506
          Condensed to atoms (all electrons):
              1          2          3          4          5          6
     1  O    9.195412  -0.090168   0.023538  -0.256937  -0.118562  -0.113587
     2  O   -0.090168   8.944165  -0.027379   0.019194  -0.087649  -0.120952
     3  P    0.023538  -0.027379  14.622693   0.117868  -0.123694   0.010296
     4  Cl  -0.256937   0.019194   0.117868  17.463571  -0.018146   0.009511
     5  C   -0.118562  -0.087649  -0.123694  -0.018146   6.149137  -0.091716
     6  C   -0.113587  -0.120952   0.010296   0.009511  -0.091716   6.181548
     7  C   -0.036830   0.018604  -0.038209   0.022448  -0.182424  -0.141367
     8  C    0.003995  -0.037762  -0.028372  -0.001047  -0.122796  -0.218808
     9  H    0.011495   0.005535   0.014232  -0.006015   0.045785  -0.080809
    10  H    0.010130  -0.000785  -0.012269   0.002298  -0.047022  -0.007454
    11  H   -0.005248  -0.004156  -0.024000   0.021144  -0.030924   0.038222
    12  H    0.004194   0.001450   0.009770  -0.000381  -0.066107   0.044082
    13  H    0.000329   0.010971  -0.013918   0.000905  -0.030047  -0.031276
    14  H   -0.004977   0.006887  -0.014546  -0.001075   0.043671  -0.037539
              7          8          9         10         11         12
     1  O   -0.036830   0.003995   0.011495   0.010130  -0.005248   0.004194
     2  O    0.018604  -0.037762   0.005535  -0.000785  -0.004156   0.001450
     3  P   -0.038209  -0.028372   0.014232  -0.012269  -0.024000   0.009770
     4  Cl   0.022448  -0.001047  -0.006015   0.002298   0.021144  -0.000381
     5  C   -0.182424  -0.122796   0.045785  -0.047022  -0.030924  -0.066107
     6  C   -0.141367  -0.218808  -0.080809  -0.007454   0.038222   0.044082
     7  C    6.180723  -0.075802   0.372827   0.426218   0.384765  -0.014872
     8  C   -0.075802   6.139414  -0.016243  -0.002578   0.003998   0.375822
     9  H    0.372827  -0.016243   0.446635  -0.014838  -0.073751  -0.014946
    10  H    0.426218  -0.002578  -0.014838   0.352658   0.027426  -0.000740
    11  H    0.384765   0.003998  -0.073751   0.027426   0.422091   0.002420
    12  H   -0.014872   0.375822  -0.014946  -0.000740   0.002420   0.377836
    13  H    0.002676   0.434096  -0.003038   0.000773   0.000238  -0.003245
    14  H   -0.004381   0.379192   0.004850  -0.001249  -0.001478  -0.033719
             13         14
     1  O    0.000329  -0.004977
     2  O    0.010971   0.006887
     3  P   -0.013918  -0.014546
     4  Cl   0.000905  -0.001075
     5  C   -0.030047   0.043671
     6  C   -0.031276  -0.037539
     7  C    0.002676  -0.004381
     8  C    0.434096   0.379192
     9  H   -0.003038   0.004850
    10  H    0.000773  -0.001249
    11  H    0.000238  -0.001478
    12  H   -0.003245  -0.033719
    13  H    0.360146   0.003563
    14  H    0.003563   0.404806
 Mulliken atomic charges:
              1
     1  O   -0.622783
     2  O   -0.637954
     3  P    0.483989
     4  Cl  -0.373338
     5  C    0.680492
     6  C    0.559848
     7  C   -0.914376
     8  C   -0.833107
     9  H    0.308281
    10  H    0.267433
    11  H    0.239254
    12  H    0.318436
    13  H    0.267829
    14  H    0.255996
 Sum of Mulliken atomic charges =   0.00000
 Mulliken charges with hydrogens summed into heavy atoms:
              1
     1  O   -0.622783
     2  O   -0.637954
     3  P    0.483989
     4  Cl  -0.373338
     5  C    0.680492
     6  C    0.559848
     7  C   -0.099408
     8  C    0.009154
 Sum of Mulliken charges with hydrogens summed into heavy atoms =   0.00000
 Electronic spatial extent (au):  <r**2>=           1262.0034
 Charge=              0.0000 electrons
 Dipole moment (field-independent basis, Debye):
    X=              3.3844    Y=              0.3036    Z=             -0.0126  Tot=              3.3980
 Quadrupole moment (field-independent basis, Debye-Ang):
   XX=            -60.2496   YY=            -59.7673   ZZ=            -62.2712
   XY=              2.2194   XZ=              2.7589   YZ=             -0.3816
 Traceless Quadrupole moment (field-independent basis, Debye-Ang):
   XX=              0.5131   YY=              0.9954   ZZ=             -1.5085
   XY=              2.2194   XZ=              2.7589   YZ=             -0.3816
 Octapole moment (field-independent basis, Debye-Ang**2):
  XXX=             16.3968  YYY=              8.7762  ZZZ=             -1.9368  XYY=              2.1343
  XXY=             -0.5757  XXZ=             -0.8271  XZZ=              1.3559  YZZ=             -0.7341
  YYZ=              2.3247  XYZ=             -1.1235
 Hexadecapole moment (field-independent basis, Debye-Ang**3):
 XXXX=           -980.1209 YYYY=           -488.0093 ZZZZ=           -216.9684 XXXY=            -14.1119
 XXXZ=             11.9993 YYYX=             -0.8468 YYYZ=             -4.3976 ZZZX=             -2.4781
 ZZZY=             -3.2277 XXYY=           -235.1059 XXZZ=           -203.3936 YYZZ=           -115.7715
 XXYZ=             -0.1803 YYXZ=             -6.6978 ZZXY=             -5.6643
 N-N= 5.608350457704D+02 E-N=-3.743368503319D+03  KE= 1.104791946129D+03
 No NMR shielding tensors so no spin-rotation constants.
 Leave Link  601 at Sat Aug 20 18:31:12 2016, MaxMem=  786432000 cpu:       1.7
 (Enter /home/olga/g09/l701.exe)
 Compute integral first derivatives.
 ... and contract with generalized density number  2.
 Leave Link  701 at Sat Aug 20 18:31:12 2016, MaxMem=  786432000 cpu:       1.5
 (Enter /home/olga/g09/l702.exe)
 L702 exits ... SP integral derivatives will be done elsewhere.
 Leave Link  702 at Sat Aug 20 18:31:12 2016, MaxMem=  786432000 cpu:       0.0
 (Enter /home/olga/g09/l703.exe)
 Compute integral first derivatives, UseDBF=F ICtDFT=           0.
 Integral derivatives from FoFDir, PRISM(SPDF).
 Calling FoFJK, ICntrl=      2127 FMM=F ISym2X=0 I1Cent= 0 IOpClX= 0 NMat=1 NMatS=1 NMatT=0.
 FoFCou: FMM=F IPFlag=           0 FMFlag=      100000 FMFlg1=         800
         NFxFlg=           0 DoJE=F BraDBF=F KetDBF=F FulRan=T
         Omega=  0.000000  0.000000  1.000000  0.000000  0.000000 ICntrl=    2127 IOpCl=  0
         NMat0=    1 NMatS0=    1 NMatT0=    0 NMatD0=    1 NMtDS0=    0 NMtDT0=    0
         I1Cent=           0 NGrid=           0.
 Symmetry not used in FoFCou.
 Leave Link  703 at Sat Aug 20 18:40:09 2016, MaxMem=  786432000 cpu:    2144.6
 (Enter /home/olga/g09/l716.exe)
 Dipole        = 1.32534687D+00 1.51128735D-01-1.16659706D-02
 ***** Axes restored to original set *****
 -------------------------------------------------------------------
 Center     Atomic                   Forces (Hartrees/Bohr)
 Number     Number              X              Y              Z
 -------------------------------------------------------------------
      1        8           0.026932912    0.001508234    0.045231050
      2        8          -0.000223783   -0.006387130   -0.016133570
      3       15          -0.010599309   -0.015873479    0.006869136
      4       17          -0.014144147    0.021192699   -0.039968826
      5        6          -0.011401080   -0.004282916    0.005655987
      6        6           0.008896443    0.002324319   -0.002344386
      7        6           0.000368545    0.000183356    0.001512577
      8        6          -0.000012788    0.000354578   -0.000831911
      9        1           0.000051159    0.000029509    0.000088260
     10        1          -0.000117711    0.000065337   -0.000102353
     11        1          -0.000629426    0.000354092   -0.000055830
     12        1           0.000009151    0.000081698    0.000020706
     13        1           0.000247600    0.000121276    0.000032113
     14        1           0.000622434    0.000328428    0.000027045
 -------------------------------------------------------------------
 Cartesian Forces:  Max     0.045231050 RMS     0.011959871
 -----------------------------------------------------------------------------------------------
                       Internal Coordinate Forces (Hartree/Bohr or radian)
  Cent   Atom   N1       Length/X         N2         Alpha/Y        N3         Beta/Z          J
 -----------------------------------------------------------------------------------------------
         X 
         X        1   0.000000(     1)
         X        2  -0.001966(     2)      1   0.011168(    18)
         X        3   0.000000(     3)      2   0.000000(    19)      1  -0.018709(    34)     0
      1  O        2  -0.001508(     4)      3  -0.028619(    20)      1   0.124122(    35)     0
      2  O        2  -0.006387(     5)      3   0.000505(    21)      5   0.035610(    36)     0
      3  P        2   0.034426(     6)      5   0.034164(    22)      1   0.011167(    37)     0
      4  Cl       7   0.023499(     7)      2   0.087280(    23)      1  -0.134528(    38)     0
      5  C        3   0.003651(     8)      2  -0.028049(    24)      4  -0.012994(    39)     0
      6  C        3   0.003210(     9)      4  -0.005715(    25)      9  -0.013029(    40)     0
      7  C        9  -0.000667(    10)      3   0.000225(    26)      5   0.002281(    41)     0
      8  C       10   0.001237(    11)      3  -0.000714(    27)      6   0.000874(    42)     0
      9  H       11   0.000061(    12)      9  -0.000007(    28)      3   0.000167(    43)     0
     10  H       11  -0.000112(    13)      9  -0.000202(    29)      3   0.000154(    44)     0
     11  H       11  -0.000127(    14)      9  -0.001447(    30)      3  -0.000219(    45)     0
     12  H       12  -0.000029(    15)     10   0.000157(    31)      3  -0.000043(    46)     0
     13  H       12   0.000080(    16)     10   0.000520(    32)      3   0.000158(    47)     0
     14  H       12   0.000137(    17)     10   0.001391(    33)      3  -0.000270(    48)     0
 -----------------------------------------------------------------------------------------------
 Internal  Forces:  Max     0.134528236 RMS     0.031607932
 Leave Link  716 at Sat Aug 20 18:40:09 2016, MaxMem=  786432000 cpu:       0.7
 (Enter /home/olga/g09/l103.exe)
 GradGradGradGradGradGradGradGradGradGradGradGradGradGradGradGradGradGrad
 Berny optimization.
 Search for a local minimum.
 Step number   1 out of a maximum of   45
 All quantities printed in internal units (Hartrees-Bohrs-Radians)
 Second derivative matrix not updated -- first step.
 ITU=  0
     Eigenvalues ---    0.01791   0.01816   0.06792   0.10109   0.10231
     Eigenvalues ---    0.13714   0.13714   0.13754   0.13754   0.14216
     Eigenvalues ---    0.21265   0.25221   0.30654   0.33416   0.33416
     Eigenvalues ---    0.35045   0.35045   0.35056   0.35056   0.35335
     Eigenvalues ---    0.35335   0.35591   0.35591   0.36103   0.40063
     Eigenvalues ---    0.40063   0.40124   0.40124   0.47368   0.59114
     Eigenvalues ---    0.65184   0.66473   0.83190   1.44135   2.76120
 RFO step:  Lambda=-2.95162833D-02 EMin= 1.79125790D-02
 Linear search not attempted -- first point.
 Maximum step size (   0.300) exceeded in Quadratic search.
    -- Step size scaled by   0.980
 Variable       Old X    -DE/DX   Delta X   Delta X   Delta X     New X
                                 (Linear)    (Quad)   (Total)
    R2        2.43884  -0.00197   0.00000   0.00679   0.00679   2.44562
    R4        2.25734  -0.00151   0.00000  -0.01271  -0.01271   2.24463
    R5        2.25734  -0.00639   0.00000  -0.05900  -0.05900   2.19834
    R6        2.13149   0.03443   0.00000   0.08039   0.08039   2.21188
    R7        3.96950   0.02350   0.00000   0.08176   0.08176   4.05126
    R8        1.26140   0.00365   0.00000   0.01781   0.01781   1.27920
    R9        1.26140   0.00321   0.00000  -0.02142  -0.02142   1.23998
   R10        2.78026  -0.00067   0.00000  -0.00170  -0.00170   2.77856
   R11        2.78026   0.00124   0.00000   0.00315   0.00315   2.78341
   R12        2.05135   0.00006   0.00000   0.00016   0.00016   2.05151
   R13        2.05601  -0.00011   0.00000  -0.00029  -0.00029   2.05573
   R14        2.05583  -0.00013   0.00000  -0.00033  -0.00033   2.05551
   R15        2.05135  -0.00003   0.00000  -0.00007  -0.00007   2.05128
   R16        2.05601   0.00008   0.00000   0.00021   0.00021   2.05622
   R17        2.05583   0.00014   0.00000   0.00035   0.00035   2.05619
    A6        1.79994   0.08728   0.00000   0.26370   0.26370   2.06364
    A7        1.57080  -0.02805   0.00000  -0.01136  -0.01136   1.55944
    A9        2.30670   0.00023   0.00000  -0.00039  -0.00039   2.30630
   A10        2.30670  -0.00071   0.00000   0.01170   0.01170   2.31840
   A11        1.92653  -0.00001   0.00000   0.00157   0.00157   1.92810
   A12        1.92555  -0.00020   0.00000  -0.00011  -0.00011   1.92545
   A13        1.92662  -0.00145   0.00000  -0.00593  -0.00593   1.92068
   A14        1.92653   0.00016   0.00000  -0.00118  -0.00118   1.92535
   A15        1.92555   0.00052   0.00000   0.00123   0.00123   1.92678
   A16        1.92662   0.00139   0.00000   0.00553   0.00553   1.93215
    B1        0.00000  -0.01871   0.00000  -0.03812  -0.03812  -0.03812
    B4        1.22815   0.01117   0.00000  -0.01362  -0.01362   1.21454
    B8        3.14159   0.00228   0.00000  -0.01028  -0.01028   3.13131
    B9        3.14159   0.00087   0.00000  -0.02557  -0.02557   3.11602
   B10        0.02770   0.00017   0.00000   0.00225   0.00225   0.02995
   B11        2.12590   0.00015   0.00000   0.00461   0.00461   2.13051
   B12       -2.07265  -0.00022   0.00000   0.00197   0.00197  -2.07067
   B13       -0.02770  -0.00004   0.00000   0.00402   0.00402  -0.02367
   B14       -2.12590   0.00016   0.00000   0.00654   0.00654  -2.11936
   B15        2.07265  -0.00027   0.00000   0.00377   0.00377   2.07642
         Item               Value     Threshold  Converged?
 Maximum Force            0.087280     0.000002     NO 
 RMS     Force            0.017485     0.000001     NO 
 Maximum Displacement     0.263697     0.000006     NO 
 RMS     Displacement     0.050709     0.000004     NO 
 Predicted change in Energy=-1.608057D-02
 GradGradGradGradGradGradGradGradGradGradGradGradGradGradGradGradGradGrad
 Leave Link  103 at Sat Aug 20 18:40:09 2016, MaxMem=  786432000 cpu:       0.4
 (Enter /home/olga/g09/l202.exe)
 ---------------------------------------------------------------------------------------------------
                            Z-MATRIX (ANGSTROMS AND DEGREES)
   CD    Cent   Atom    N1       Length/X        N2       Alpha/Y        N3        Beta/Z          J
 ---------------------------------------------------------------------------------------------------
      1         X 
      2         X        1   1.000000(     1)
      3         X        2   1.294167(     2)      1   90.000(    18)
      4         X        3   1.000000(     3)      2   90.000(    19)      1   -2.184(    34)      0
      5      1  O        2   1.187805(     4)      3   90.000(    20)      1   90.000(    35)      0
      6      2  O        2   1.163313(     5)      3   90.000(    21)      5  180.000(    36)      0
      7      3  P        2   1.170479(     6)      5   90.000(    22)      1   69.588(    37)      0
      8      4  Cl       7   2.143835(     7)      2  118.238(    23)      1   30.000(    38)      0
      9      5  C        3   0.676926(     8)      2   89.349(    24)      4  -90.000(    39)      0
     10      6  C        3   0.656169(     9)      4   90.000(    25)      9  180.000(    40)      0
     11      7  C        9   1.470352(    10)      3  132.142(    26)      5  179.411(    41)      0
     12      8  C       10   1.472915(    11)      3  132.835(    27)      6  178.535(    42)      0
     13      9  H       11   1.085611(    12)      9  110.472(    28)      3    1.716(    43)      0
     14     10  H       11   1.087843(    13)      9  110.320(    29)      3  122.069(    44)      0
     15     11  H       11   1.087727(    14)      9  110.047(    30)      3 -118.641(    45)      0
     16     12  H       12   1.085489(    15)     10  110.314(    31)      3   -1.356(    46)      0
     17     13  H       12   1.088105(    16)     10  110.397(    32)      3 -121.430(    47)      0
     18     14  H       12   1.088088(    17)     10  110.704(    33)      3  118.970(    48)      0
 ---------------------------------------------------------------------------------------------------
                         Z-Matrix orientation:                         
 ---------------------------------------------------------------------
 Center     Atomic      Atomic             Coordinates (Angstroms)
 Number     Number       Type             X           Y           Z
 ---------------------------------------------------------------------
      1         -1           0        0.000000    0.000000    0.000000
      2         -1           0        0.000000    0.000000    1.000000
      3         -1           0        1.294167    0.000000    1.000000
      4         -1           0        1.294167   -0.038113    0.000727
      5          8           0        0.000000   -1.187805    1.000000
      6          8           0        0.000000    1.163313    1.000000
      7         15           0       -1.096982    0.000000    0.591772
      8         17           0       -1.477137   -0.944351   -1.294948
      9          6           0        1.286479   -0.676391    1.025798
     10          6           0        1.301619    0.655650    0.974993
     11          6           0        2.365114   -1.673492    1.091158
     12          6           0        2.393001    1.643670    0.928309
     13          1           0        3.333287   -1.183695    1.127100
     14          1           0        2.252743   -2.294011    1.977572
     15          1           0        2.328481   -2.320233    0.217353
     16          1           0        3.355800    1.143599    0.963427
     17          1           0        2.324120    2.325044    1.773860
     18          1           0        2.339594    2.232995    0.015194
 ---------------------------------------------------------------------
                    Distance matrix (angstroms):
                    1          2          3          4          5
     1  X    0.000000
     2  X    1.000000   0.000000
     3  X    1.635502   1.294167   0.000000
     4  X    1.294728   1.635502   1.000000   0.000000
     5  O    1.552701   1.187805   1.756630   1.998802   0.000000
     6  O    1.534046   1.163313   1.740162   2.029000   2.351118
     7  P    1.246421   1.170479   2.425746   2.463409   1.667603
     8  Cl   2.179592   2.887995   3.720042   3.190637   2.740071
     9  C    1.778987   1.453685   0.676926   1.207572   1.384644
    10  C    1.753482   1.457640   0.656169   1.196059   2.256804
    11  C    3.095959   2.898732   1.988923   2.238400   2.416188
    12  C    3.047927   2.904005   1.978440   2.212744   3.707943
    13  H    3.712451   3.539504   2.361207   2.595975   3.335712
    14  H    3.774670   3.360504   2.671517   3.148947   2.693361
    15  H    3.294320   3.379030   2.658162   2.514917   2.704950
    16  H    3.673881   3.545497   2.357857   2.563896   4.086340
    17  H    3.735498   3.377310   2.658100   3.128788   4.282581
    18  H    3.234223   3.380800   2.655000   2.500212   4.259744
                    6          7          8          9         10
     6  O    0.000000
     7  P    1.650248   0.000000
     8  Cl   3.448328   2.143835   0.000000
     9  C    2.245040   2.515308   3.618734   0.000000
    10  C    1.397340   2.515954   3.928628   1.333095   0.000000
    11  C    3.694528   3.877638   4.581270   1.470352   2.563088
    12  C    2.441789   3.872324   5.159330   2.572270   1.472915
    13  H    4.078652   4.616817   5.391083   2.111170   2.744814
    14  H    4.240706   4.289941   5.142273   2.110980   3.257346
    15  H    4.262564   4.154211   4.320050   2.107503   3.237954
    16  H    3.356057   4.612290   5.728618   2.756509   2.111371
    17  H    2.711091   4.301989   5.878442   3.262653   2.114373
    18  H    2.754590   4.138692   5.136091   3.254980   2.118165
                   11         12         13         14         15
    11  C    0.000000
    12  C    3.321274   0.000000
    13  H    1.085611   2.986243   0.000000
    14  H    1.087843   4.077494   1.767393   0.000000
    15  H    1.087727   4.027673   1.768896   1.762044   0.000000
    16  H    2.988943   1.085489   2.333152   3.749986   3.689193
    17  H    4.056607   1.088105   3.707826   4.624096   4.899116
    18  H    4.052035   1.088088   3.727939   4.934801   4.557727
                   16         17         18
    16  H    0.000000
    17  H    1.765497   0.000000
    18  H    1.765956   1.761141   0.000000
                           Interatomic angles:
       X1-X2-X3= 90.           X2-X3-X4= 90.           X1-X2-O5= 90.    
       X3-X2-O5= 90.           X1-X2-O6= 90.           X3-X2-O6= 90.    
       O5-X2-O6=180.           X1-X2-P7= 69.5879       X3-X2-P7=159.5879
       O5-X2-P7= 90.           O6-X2-P7= 90.          X2-P7-Cl8=118.2377
       X2-X3-C9= 89.3493       X4-X3-C9= 90.          X2-X3-C10= 90.6507
      X4-X3-C10= 90.          C9-X3-C10=180.          X3-C9-C11=132.1415
     X3-C10-C12=132.8346     C9-C11-H13=110.4718     C9-C11-H14=110.3199
    H13-C11-H14=108.8141     C9-C11-H15=110.047     H13-C11-H15=108.9589
    H14-C11-H15=108.1767    C10-C12-H16=110.3142    C10-C12-H17=110.3966
    H16-C12-H17=108.6322    C10-C12-H18=110.7041    H16-C12-H18=108.675 
    H17-C12-H18=108.0506
                              Dihedral angles:
     X4-X3-X2-X1=  -2.18    O5-X2-X3-X1=  90.      O5-X2-X3-X4=  87.8
     O6-X2-X3-X1= -90.      O6-X2-X3-X4= -92.18    P7-X2-X3-X1=   0. 
     P7-X2-X3-X4=  -2.18    P7-X2-O5-X1=  69.59    P7-X2-O5-X3= 159.5
     P7-X2-O6-X1= -69.59    P7-X2-O6-X3=-159.59   Cl8-P7-X2-X1=  30. 
    Cl8-P7-X2-X3=  30.     Cl8-P7-X2-O5= -60.     Cl8-P7-X2-O6= 120. 
     C9-X3-X2-X1= -92.18    C9-X3-X4-X2=  89.35    C9-X3-X2-O5=  -2.1
     C9-X3-X2-O6= 177.82    C9-X3-X2-P7= -92.18   C10-X3-X2-X1=  87.8
    C10-X3-X4-X2= -90.65   C10-X3-X2-O5= 177.82   C10-X3-X2-O6=  -2.1
    C10-X3-X2-P7=  87.82   C11-C9-X3-X2=-178.56   C11-C9-X3-X4=  91.4
   C12-C10-X3-X2=-179.52  C12-C10-X3-X4= -89.52  H13-C11-C9-X3=   1.7
   H14-C11-C9-X3= 122.07 H14-C11-H13-C9=-121.25  H15-C11-C9-X3=-118.6
  H15-C11-H13-C9= 121.01 H15-C11-H14-C9=-120.42H15-C11-H14-H13= 118.2
  H16-C12-C10-X3=  -1.36 H17-C12-C10-X3=-121.43H17-C12-H16-C10= 121.1
  H18-C12-C10-X3= 118.97H18-C12-H16-C10=-121.54H18-C12-H17-C10= 121.1
 H18-C12-H17-H16=-117.73
 Stoichiometry    C4H6ClO2P
 Framework group  C1[X(C4H6ClO2P)]
 Deg. of freedom    36
 Full point group                 C1      NOp   1
 Largest Abelian subgroup         C1      NOp   1
 Largest concise Abelian subgroup C1      NOp   1
                         Standard orientation:                         
 ---------------------------------------------------------------------
 Center     Atomic      Atomic             Coordinates (Angstroms)
 Number     Number       Type             X           Y           Z
 ---------------------------------------------------------------------
      1          8           0       -0.197524    0.839551   -0.770318
      2          8           0        0.405294   -1.401520   -0.393534
      3         15           0       -1.016166   -0.609743   -0.668958
      4         17           0       -2.421184    0.235277    0.712308
      5          6           0        1.050028    0.738145   -0.178228
      6          6           0        1.382040   -0.525401    0.087029
      7          6           0        1.749816    2.010901    0.050519
      8          6           0        2.552087   -1.137502    0.739563
      9          1           0        2.722920    1.834058    0.498120
     10          1           0        1.887138    2.540772   -0.889577
     11          1           0        1.165179    2.643768    0.714469
     12          1           0        3.266411   -0.372399    1.027042
     13          1           0        3.042450   -1.834227    0.062739
     14          1           0        2.252540   -1.686656    1.629865
 ---------------------------------------------------------------------
 Rotational constants (GHZ):      2.4187109      1.0470114      0.8705971
 Leave Link  202 at Sat Aug 20 18:40:09 2016, MaxMem=  786432000 cpu:       0.0
 (Enter /home/olga/g09/l301.exe)
 Standard basis: Aug-CC-pVTZ (5D, 7F)
 Ernie: Thresh=  0.10000D-02 Tol=  0.10000D-05 Strict=F.
 Ernie:  43 primitive shells out of 374 were deleted.
 There are   514 symmetry adapted basis functions of A   symmetry.
 Integral buffers will be    131072 words long.
 Raffenetti 1 integral format.
 Two-electron integral symmetry is turned on.
   514 basis functions,   823 primitive gaussians,   598 cartesian basis functions
    39 alpha electrons       39 beta electrons
       nuclear repulsion energy       546.0583271994 Hartrees.
 IExCor=    0 DFT=F Ex=HF Corr=None ExCW=0 ScaHFX=  1.000000
 ScaDFX=  1.000000  1.000000  1.000000  1.000000 ScalE2=  1.000000  1.000000
 IRadAn=      0 IRanWt=     -1 IRanGd=            0 ICorTp=0
 NAtoms=   14 NActive=   14 NUniq=   14 SFac= 1.00D+00 NAtFMM=   50 NAOKFM=F Big=F
 Leave Link  301 at Sat Aug 20 18:40:09 2016, MaxMem=  786432000 cpu:       0.2
 (Enter /home/olga/g09/l302.exe)
 NPDir=0 NMtPBC=     1 NCelOv=     1 NCel=       1 NClECP=     1 NCelD=      1
         NCelK=      1 NCelE2=     1 NClLst=     1 CellRange=     0.0.
 One-electron integrals computed using PRISM.
 NBasis=   514 RedAO= T  NBF=   514
 NBsUse=   514 1.00D-06 NBFU=   514
 Leave Link  302 at Sat Aug 20 18:40:10 2016, MaxMem=  786432000 cpu:       1.8
 (Enter /home/olga/g09/l303.exe)
 DipDrv:  MaxL=1.
 Leave Link  303 at Sat Aug 20 18:40:10 2016, MaxMem=  786432000 cpu:       0.4
 (Enter /home/olga/g09/l401.exe)
 Initial guess read from the read-write file.
 B after Tr=     0.000000    0.000000    0.000000
         Rot=    1.000000    0.000000    0.000000    0.000000 Ang=   0.00 deg.
 Guess basis will be translated and rotated to current coordinates.
 Initial guess orbital symmetries:
       Occupied  (A) (A) (A) (A) (A) (A) (A) (A) (A) (A) (A) (A)
                 (A) (A) (A) (A) (A) (A) (A) (A) (A) (A) (A) (A)
                 (A) (A) (A) (A) (A) (A) (A) (A) (A) (A) (A) (A)
                 (A) (A) (A)
       Virtual   (A) (A) (A) (A) (A) (A) (A) (A) (A) (A) (A) (A)
                 (A) (A) (A) (A) (A) (A) (A) (A) (A) (A) (A) (A)
                 (A) (A) (A) (A) (A) (A) (A) (A) (A) (A) (A) (A)
                 (A) (A) (A) (A) (A) (A) (A) (A) (A) (A) (A) (A)
                 (A) (A) (A) (A) (A) (A) (A) (A) (A) (A) (A) (A)
                 (A) (A) (A) (A) (A) (A) (A) (A) (A) (A) (A) (A)
                 (A) (A) (A) (A) (A) (A) (A) (A) (A) (A) (A) (A)
                 (A) (A) (A) (A) (A) (A) (A) (A) (A) (A) (A) (A)
[...]
   B13       -0.03365   0.00000  -0.00014  -0.00020  -0.00033  -0.03398
   B14       -2.13109   0.00000  -0.00013  -0.00020  -0.00033  -2.13142
   B15        2.06066   0.00000  -0.00013  -0.00019  -0.00033   2.06033
         Item               Value     Threshold  Converged?
 Maximum Force            0.000001     0.000002     YES
 RMS     Force            0.000001     0.000001     YES
 Maximum Displacement     0.000335     0.000006     NO 
 RMS     Displacement     0.000118     0.000004     NO 
 Predicted change in Energy=-2.695029D-10
 GradGradGradGradGradGradGradGradGradGradGradGradGradGradGradGradGradGrad
 Leave Link  103 at Mon Aug 22 11:24:11 2016, MaxMem=  786432000 cpu:       0.4
 (Enter /home/olga/g09/l202.exe)
 ---------------------------------------------------------------------------------------------------
                            Z-MATRIX (ANGSTROMS AND DEGREES)
   CD    Cent   Atom    N1       Length/X        N2       Alpha/Y        N3        Beta/Z          J
 ---------------------------------------------------------------------------------------------------
      1         X 
      2         X        1   1.000000(     1)
      3         X        2   1.285701(     2)      1   90.000(    18)
      4         X        3   1.000000(     3)      2   90.000(    19)      1   -2.255(    34)      0
      5      1  O        2   1.179265(     4)      3   90.000(    20)      1   90.000(    35)      0
      6      2  O        2   1.174001(     5)      3   90.000(    21)      5  180.000(    36)      0
      7      3  P        2   1.164510(     6)      5   90.000(    22)      1   79.262(    37)      0
      8      4  Cl       7   2.149370(     7)      2  113.977(    23)      1   30.000(    38)      0
      9      5  C        3   0.670255(     8)      2   89.163(    24)      4  -90.000(    39)      0
     10      6  C        3   0.665956(     9)      4   90.000(    25)      9  180.000(    40)      0
     11      7  C        9   1.472657(    10)      3  131.811(    26)      5  179.231(    41)      0
     12      8  C       10   1.471815(    11)      3  132.972(    27)      6  179.261(    42)      0
     13      9  H       11   1.085349(    12)      9  110.366(    28)      3    0.738(    43)      0
     14     10  H       11   1.087813(    13)      9  110.177(    29)      3  120.801(    44)      0
     15     11  H       11   1.087510(    14)      9  110.435(    30)      3 -119.858(    45)      0
     16     12  H       12   1.085763(    15)     10  110.104(    31)      3   -1.947(    46)      0
     17     13  H       12   1.087823(    16)     10  110.711(    32)      3 -122.121(    47)      0
     18     14  H       12   1.088002(    17)     10  110.623(    33)      3  118.048(    48)      0
 ---------------------------------------------------------------------------------------------------
                         Z-Matrix orientation:                         
 ---------------------------------------------------------------------
 Center     Atomic      Atomic             Coordinates (Angstroms)
 Number     Number       Type             X           Y           Z
 ---------------------------------------------------------------------
      1         -1           0        0.000000    0.000000    0.000000
      2         -1           0        0.000000    0.000000    1.000000
      3         -1           0        1.285701    0.000000    1.000000
      4         -1           0        1.285701   -0.039348    0.000774
      5          8           0        0.000000   -1.179265    1.000000
      6          8           0        0.000000    1.174001    1.000000
      7         15           0       -1.144118    0.000000    0.783028
      8         17           0       -1.685357   -0.981952   -1.050717
      9          6           0        1.275907   -0.669665    1.026371
     10          6           0        1.295431    0.665369    0.973799
     11          6           0        2.358790   -1.665608    1.091022
     12          6           0        2.386613    1.651055    0.910679
     13          1           0        3.325347   -1.172154    1.106934
     14          1           0        2.260254   -2.269141    1.990675
     15          1           0        2.314819   -2.330642    0.231677
     16          1           0        3.347537    1.146635    0.943365
     17          1           0        2.328391    2.343542    1.747596
     18          1           0        2.329312    2.227723   -0.010146
 ---------------------------------------------------------------------
                    Distance matrix (angstroms):
                    1          2          3          4          5
     1  X    0.000000
     2  X    1.000000   0.000000
     3  X    1.628811   1.285701   0.000000
     4  X    1.286303   1.628811   1.000000   0.000000
     5  O    1.546178   1.179265   1.744618   1.987684   0.000000
     6  O    1.542166   1.174001   1.741064   2.030688   2.353266
     7  P    1.386412   1.164510   2.439487   2.552937   1.657332
     8  Cl   2.215551   2.830212   3.741237   3.289578   2.661729
     9  C    1.769132   1.441210   0.670255   1.203845   1.374164
    10  C    1.751896   1.456552   0.665956   1.201456   2.254219
    11  C    3.086822   2.889018   1.983445   2.232685   2.410125
    12  C    3.041585   2.903426   1.986446   2.213006   3.703325
    13  H    3.695562   3.527508   2.354897   2.582053   3.327074
    14  H    3.771012   3.352489   2.660863   3.143475   2.697779
    15  H    3.293016   3.373515   2.661071   2.522385   2.697105
    16  H    3.662064   3.538924   2.359905   2.558555   4.076644
    17  H    3.737337   3.387107   2.671758   3.133170   4.288412
    18  H    3.223127   3.377697   2.659374   2.495768   4.248960
                    6          7          8          9         10
     6  O    0.000000
     7  P    1.653590   0.000000
     8  Cl   3.419649   2.149370   0.000000
     9  C    2.242262   2.522734   3.630551   0.000000
    10  C    1.391953   2.535845   3.961998   1.336211   0.000000
    11  C    3.692635   3.890948   4.627046   1.472657   2.564747
    12  C    2.435463   3.899787   5.230750   2.575420   1.471815
    13  H    4.071095   4.631952   5.458827   2.111679   2.741309
    14  H    4.236202   4.265813   5.145363   2.111195   3.252118
    15  H    4.269804   4.207152   4.411906   2.114172   3.250535
    16  H    3.348128   4.638475   5.816982   2.756354   2.108005
    17  H    2.710744   4.298942   5.916049   3.272202   2.117081
    18  H    2.748894   4.201975   5.244270   3.252520   2.116130
                   11         12         13         14         15
    11  C    0.000000
    12  C    3.321679   0.000000
    13  H    1.085349   2.981652   0.000000
    14  H    1.087813   4.068205   1.766013   0.000000
    15  H    1.087510   4.039815   1.768993   1.760918   0.000000
    16  H    2.984650   1.085763   2.324658   3.734511   3.696547
    17  H    4.062671   1.087823   3.710053   4.619586   4.913877
    18  H    4.046167   1.088002   3.714717   4.922381   4.564798
                   16         17         18
    16  H    0.000000
    17  H    1.765795   0.000000
    18  H    1.764856   1.761554   0.000000
                           Interatomic angles:
       X1-X2-X3= 90.           X2-X3-X4= 90.           X1-X2-O5= 90.    
       X3-X2-O5= 90.           X1-X2-O6= 90.           X3-X2-O6= 90.    
       O5-X2-O6=180.           X1-X2-P7= 79.2619       X3-X2-P7=169.2619
       O5-X2-P7= 90.           O6-X2-P7= 90.          X2-P7-Cl8=113.9766
       X2-X3-C9= 89.1628       X4-X3-C9= 90.          X2-X3-C10= 90.8372
      X4-X3-C10= 90.          C9-X3-C10=180.          X3-C9-C11=131.8112
     X3-C10-C12=132.9717     C9-C11-H13=110.3658     C9-C11-H14=110.1766
    H13-C11-H14=108.7106     C9-C11-H15=110.4349    H13-C11-H15=109.0031
    H14-C11-H15=108.0937    C10-C12-H16=110.1038    C10-C12-H17=110.7107
    H16-C12-H17=108.6598    C10-C12-H18=110.6226    H16-C12-H18=108.5617
    H17-C12-H18=108.1143
                              Dihedral angles:
     X4-X3-X2-X1=  -2.26    O5-X2-X3-X1=  90.      O5-X2-X3-X4=  87.7
     O6-X2-X3-X1= -90.      O6-X2-X3-X4= -92.26    P7-X2-X3-X1=   0. 
     P7-X2-X3-X4=  -2.26    P7-X2-O5-X1=  79.26    P7-X2-O5-X3= 169.2
     P7-X2-O6-X1= -79.26    P7-X2-O6-X3=-169.26   Cl8-P7-X2-X1=  30. 
    Cl8-P7-X2-X3=  30.     Cl8-P7-X2-O5= -60.     Cl8-P7-X2-O6= 120. 
     C9-X3-X2-X1= -92.26    C9-X3-X4-X2=  89.16    C9-X3-X2-O5=  -2.2
     C9-X3-X2-O6= 177.74    C9-X3-X2-P7= -92.26   C10-X3-X2-X1=  87.7
    C10-X3-X4-X2= -90.84   C10-X3-X2-O5= 177.74   C10-X3-X2-O6=  -2.2
    C10-X3-X2-P7=  87.74   C11-C9-X3-X2=-178.67   C11-C9-X3-X4=  91.3
   C12-C10-X3-X2=-178.71  C12-C10-X3-X4= -88.71  H13-C11-C9-X3=   0.7
   H14-C11-C9-X3= 120.8  H14-C11-H13-C9=-120.94  H15-C11-C9-X3=-119.8
  H15-C11-H13-C9= 121.45 H15-C11-H14-C9=-120.76H15-C11-H14-H13= 118.1
  H16-C12-C10-X3=  -1.95 H17-C12-C10-X3=-122.12H17-C12-H16-C10= 121.4
  H18-C12-C10-X3= 118.05H18-C12-H16-C10=-121.24H18-C12-H17-C10= 121.3
 H18-C12-H17-H16=-117.64
 Stoichiometry    C4H6ClO2P
 Framework group  C1[X(C4H6ClO2P)]
 Deg. of freedom    36
 Full point group                 C1      NOp   1
 Largest Abelian subgroup         C1      NOp   1
 Largest concise Abelian subgroup C1      NOp   1
                         Standard orientation:                         
 ---------------------------------------------------------------------
 Center     Atomic      Atomic             Coordinates (Angstroms)
 Number     Number       Type             X           Y           Z
 ---------------------------------------------------------------------
      1          8           0       -0.227962    0.847479   -0.653507
      2          8           0        0.392185   -1.397152   -0.314519
      3         15           0       -1.014478   -0.610986   -0.685467
      4         17           0       -2.447618    0.228567    0.678737
      5          6           0        1.048399    0.741041   -0.155610
      6          6           0        1.397638   -0.524694    0.092195
      7          6           0        1.771234    2.011729    0.022098
      8          6           0        2.601682   -1.137196    0.676455
      9          1           0        2.764901    1.828790    0.418509
     10          1           0        1.865310    2.526431   -0.931614
     11          1           0        1.231673    2.663111    0.705656
     12          1           0        3.333735   -0.370596    0.911626
     13          1           0        3.049315   -1.844458   -0.018357
     14          1           0        2.354241   -1.672012    1.591054
 ---------------------------------------------------------------------
 Rotational constants (GHZ):      2.4896072      1.0382512      0.8557551
 Leave Link  202 at Mon Aug 22 11:24:11 2016, MaxMem=  786432000 cpu:       0.1
 (Enter /home/olga/g09/l301.exe)
 Standard basis: Aug-CC-pVTZ (5D, 7F)
 Ernie: Thresh=  0.10000D-02 Tol=  0.10000D-05 Strict=F.
 Ernie:  43 primitive shells out of 374 were deleted.
 There are   514 symmetry adapted basis functions of A   symmetry.
 Integral buffers will be    131072 words long.
 Raffenetti 1 integral format.
 Two-electron integral symmetry is turned on.
   514 basis functions,   823 primitive gaussians,   598 cartesian basis functions
    39 alpha electrons       39 beta electrons
       nuclear repulsion energy       546.3022547416 Hartrees.
 IExCor=    0 DFT=F Ex=HF Corr=None ExCW=0 ScaHFX=  1.000000
 ScaDFX=  1.000000  1.000000  1.000000  1.000000 ScalE2=  1.000000  1.000000
 IRadAn=      0 IRanWt=     -1 IRanGd=            0 ICorTp=0
 NAtoms=   14 NActive=   14 NUniq=   14 SFac= 1.00D+00 NAtFMM=   50 NAOKFM=F Big=F
 Leave Link  301 at Mon Aug 22 11:24:12 2016, MaxMem=  786432000 cpu:       0.1
 (Enter /home/olga/g09/l302.exe)
 NPDir=0 NMtPBC=     1 NCelOv=     1 NCel=       1 NClECP=     1 NCelD=      1
         NCelK=      1 NCelE2=     1 NClLst=     1 CellRange=     0.0.
 One-electron integrals computed using PRISM.
 NBasis=   514 RedAO= T  NBF=   514
 NBsUse=   514 1.00D-06 NBFU=   514
 Leave Link  302 at Mon Aug 22 11:24:12 2016, MaxMem=  786432000 cpu:       1.9
 (Enter /home/olga/g09/l303.exe)
 DipDrv:  MaxL=1.
 Leave Link  303 at Mon Aug 22 11:24:12 2016, MaxMem=  786432000 cpu:       0.4
 (Enter /home/olga/g09/l401.exe)
 Initial guess read from the read-write file.
 B after Tr=     0.000000    0.000000    0.000000
         Rot=    1.000000    0.000000    0.000000    0.000000 Ang=   0.00 deg.
 Guess basis will be translated and rotated to current coordinates.
 Initial guess orbital symmetries:
       Occupied  (A) (A) (A) (A) (A) (A) (A) (A) (A) (A) (A) (A)
                 (A) (A) (A) (A) (A) (A) (A) (A) (A) (A) (A) (A)
                 (A) (A) (A) (A) (A) (A) (A) (A) (A) (A) (A) (A)
                 (A) (A) (A)
       Virtual   (A) (A) (A) (A) (A) (A) (A) (A) (A) (A) (A) (A)
                 (A) (A) (A) (A) (A) (A) (A) (A) (A) (A) (A) (A)
                 (A) (A) (A) (A) (A) (A) (A) (A) (A) (A) (A) (A)
                 (A) (A) (A) (A) (A) (A) (A) (A) (A) (A) (A) (A)
                 (A) (A) (A) (A) (A) (A) (A) (A) (A) (A) (A) (A)
                 (A) (A) (A) (A) (A) (A) (A) (A) (A) (A) (A) (A)
                 (A) (A) (A) (A) (A) (A) (A) (A) (A) (A) (A) (A)
                 (A) (A) (A) (A) (A) (A) (A) (A) (A) (A) (A) (A)
                 (A) (A) (A) (A) (A) (A) (A) (A) (A) (A) (A) (A)
                 (A) (A) (A) (A) (A) (A) (A) (A) (A) (A) (A) (A)
                 (A) (A) (A) (A) (A) (A) (A) (A) (A) (A) (A) (A)
                 (A) (A) (A) (A) (A) (A) (A) (A) (A) (A) (A) (A)
                 (A) (A) (A) (A) (A) (A) (A) (A) (A) (A) (A) (A)
                 (A) (A) (A) (A) (A) (A) (A) (A) (A) (A) (A) (A)
                 (A) (A) (A) (A) (A) (A) (A) (A) (A) (A) (A) (A)
                 (A) (A) (A) (A) (A) (A) (A) (A) (A) (A) (A) (A)
                 (A) (A) (A) (A) (A) (A) (A) (A) (A) (A) (A) (A)
                 (A) (A) (A) (A) (A) (A) (A) (A) (A) (A) (A) (A)
                 (A) (A) (A) (A) (A) (A) (A) (A) (A) (A) (A) (A)
                 (A) (A) (A) (A) (A) (A) (A) (A) (A) (A) (A) (A)
                 (A) (A) (A) (A) (A) (A) (A) (A) (A) (A) (A) (A)
                 (A) (A) (A) (A) (A) (A) (A) (A) (A) (A) (A) (A)
                 (A) (A) (A) (A) (A) (A) (A) (A) (A) (A) (A) (A)
                 (A) (A) (A) (A) (A) (A) (A) (A) (A) (A) (A) (A)
                 (A) (A) (A) (A) (A) (A) (A) (A) (A) (A) (A) (A)
                 (A) (A) (A) (A) (A) (A) (A) (A) (A) (A) (A) (A)
                 (A) (A) (A) (A) (A) (A) (A) (A) (A) (A) (A) (A)
                 (A) (A) (A) (A) (A) (A) (A) (A) (A) (A) (A) (A)
                 (A) (A) (A) (A) (A) (A) (A) (A) (A) (A) (A) (A)
                 (A) (A) (A) (A) (A) (A) (A) (A) (A) (A) (A) (A)
                 (A) (A) (A) (A) (A) (A) (A) (A) (A) (A) (A) (A)
                 (A) (A) (A) (A) (A) (A) (A) (A) (A) (A) (A) (A)
                 (A) (A) (A) (A) (A) (A) (A) (A) (A) (A) (A) (A)
                 (A) (A) (A) (A) (A) (A) (A) (A) (A) (A) (A) (A)
                 (A) (A) (A) (A) (A) (A) (A) (A) (A) (A) (A) (A)
                 (A) (A) (A) (A) (A) (A) (A) (A) (A) (A) (A) (A)
                 (A) (A) (A) (A) (A) (A) (A) (A) (A) (A) (A) (A)
                 (A) (A) (A) (A) (A) (A) (A) (A) (A) (A) (A) (A)
                 (A) (A) (A) (A) (A) (A) (A) (A) (A) (A) (A) (A)
                 (A) (A) (A) (A) (A) (A) (A)
 The electronic state of the initial guess is 1-A.
 Leave Link  401 at Mon Aug 22 11:24:13 2016, MaxMem=  786432000 cpu:       3.4
 (Enter /home/olga/g09/l502.exe)
 Closed shell SCF:
 Requested convergence on RMS density matrix=1.00D-08 within 128 cycles.
 Requested convergence on MAX density matrix=1.00D-06.
 Requested convergence on             energy=1.00D-06.
 No special actions if energy rises.
 Using DIIS extrapolation, IDIIS=  1040.
 Integral symmetry usage will be decided dynamically.
 IEnd=     1098846 IEndB=     1098846 NGot=   786432000 MDV=   785707997
 LenX=   785707997 LenY=   785349795
 Fock matrices will be formed incrementally for  20 cycles.
 Cycle   1  Pass 1  IDiag  1:
 FoFCou: FMM=F IPFlag=           0 FMFlag=      100000 FMFlg1=           0
         NFxFlg=           0 DoJE=F BraDBF=F KetDBF=F FulRan=T
         Omega=  0.000000  0.000000  1.000000  0.000000  0.000000 ICntrl=       0 IOpCl=  0
         NMat0=    1 NMatS0=    1 NMatT0=    0 NMatD0=    1 NMtDS0=    0 NMtDT0=    0
         I1Cent=           0 NGrid=           0.
 Symmetry not used in FoFCou.
 E= -1105.10604267627    
 DIIS: error= 7.81D-06 at cycle   1 NSaved=   1.
 NSaved= 1 IEnMin= 1 EnMin= -1105.10604267627     IErMin= 1 ErrMin= 7.81D-06
 ErrMax= 7.81D-06 EMaxC= 1.00D-01 BMatC= 3.46D-08 BMatP= 3.46D-08
 IDIUse=1 WtCom= 1.00D+00 WtEn= 0.00D+00
 Coeff-Com:  0.100D+01
 Coeff:      0.100D+01
 Gap=     0.357 Goal=   None    Shift=    0.000
 RMSDP=9.19D-07 MaxDP=3.95D-05              OVMax= 4.56D-05
 Cycle   2  Pass 1  IDiag  1:
 RMSU=  6.50D-07    CP:  1.00D+00
 E= -1105.10604272492     Delta-E=       -0.000000048645 Rises=F Damp=F
 DIIS: error= 2.75D-06 at cycle   2 NSaved=   2.
 NSaved= 2 IEnMin= 2 EnMin= -1105.10604272492     IErMin= 2 ErrMin= 2.75D-06
 ErrMax= 2.75D-06 EMaxC= 1.00D-01 BMatC= 2.21D-09 BMatP= 3.46D-08
 IDIUse=1 WtCom= 1.00D+00 WtEn= 0.00D+00
 Coeff-Com: -0.223D+00 0.122D+01
 Coeff:     -0.223D+00 0.122D+01
 Gap=     0.357 Goal=   None    Shift=    0.000
 RMSDP=1.48D-07 MaxDP=5.38D-06 DE=-4.86D-08 OVMax= 1.92D-05
 Cycle   3  Pass 1  IDiag  1:
 RMSU=  8.92D-08    CP:  1.00D+00  1.08D+00
 E= -1105.10604273043     Delta-E=       -0.000000005508 Rises=F Damp=F
 DIIS: error= 8.18D-07 at cycle   3 NSaved=   3.
 NSaved= 3 IEnMin= 3 EnMin= -1105.10604273043     IErMin= 3 ErrMin= 8.18D-07
 ErrMax= 8.18D-07 EMaxC= 1.00D-01 BMatC= 1.29D-10 BMatP= 2.21D-09
 IDIUse=1 WtCom= 1.00D+00 WtEn= 0.00D+00
 Coeff-Com:  0.456D-01-0.440D+00 0.139D+01
 Coeff:      0.456D-01-0.440D+00 0.139D+01
 Gap=     0.357 Goal=   None    Shift=    0.000
 RMSDP=5.61D-08 MaxDP=2.63D-06 DE=-5.51D-09 OVMax= 6.78D-06
 Cycle   4  Pass 1  IDiag  1:
 RMSU=  2.17D-08    CP:  1.00D+00  1.07D+00  1.36D+00
 E= -1105.10604273078     Delta-E=       -0.000000000355 Rises=F Damp=F
 DIIS: error= 1.21D-07 at cycle   4 NSaved=   4.
 NSaved= 4 IEnMin= 4 EnMin= -1105.10604273078     IErMin= 4 ErrMin= 1.21D-07
 ErrMax= 1.21D-07 EMaxC= 1.00D-01 BMatC= 3.16D-12 BMatP= 1.29D-10
 IDIUse=1 WtCom= 1.00D+00 WtEn= 0.00D+00
 Coeff-Com:  0.865D-02-0.674D-01 0.136D+00 0.923D+00
 Coeff:      0.865D-02-0.674D-01 0.136D+00 0.923D+00
 Gap=     0.357 Goal=   None    Shift=    0.000
 RMSDP=8.24D-09 MaxDP=3.76D-07 DE=-3.55D-10 OVMax= 7.57D-07
 SCF Done:  E(RHF) =  -1105.10604273     A.U. after    4 cycles
             Convg  =    0.8242D-08             -V/T =  2.0004
 KE= 1.104619116081D+03 PE=-3.714025392889D+03 EE= 9.579979793350D+02
 Leave Link  502 at Mon Aug 22 11:28:46 2016, MaxMem=  786432000 cpu:    1091.3
 (Enter /home/olga/g09/l801.exe)
 Range of M.O.s used for correlation:     1   514
 NBasis=   514 NAE=    39 NBE=    39 NFC=     0 NFV=     0
 NROrb=    514 NOA=    39 NOB=    39 NVA=   475 NVB=   475
 **** Warning!!: The largest alpha MO coefficient is  0.88259273D+02
 Leave Link  801 at Mon Aug 22 11:28:46 2016, MaxMem=  786432000 cpu:       0.1
 (Enter /home/olga/g09/l906.exe)
 FulOut=F Deriv=T AODrv=T NAtomX=    14
   MMem=           6  MDisk=          39 MDiskD=          39
  W3Min=    11987508 MinDsk=    17059811 NBas6D=         598
 NBas2D=      180517    NTT=      179101    LW2=     3500000
    MDV=   783439164 MDiskM=        6533 NBas2p=      176419
 Disk-based method using ON**2 memory for 39 occupieds at a time.
 Estimated scratch disk usage= 17149866710 words.
 IMap=   1   2   3   4   5   6   7   8   9  10  11  12  13  14  15  16  17  18  19  20
 IMap=  21  22  23  24  25  26  27  28  29  30  31  32  33  34  35  36  37  38  39
 Actual    scratch disk usage= 16399369430 words.
 JobTyp=1 Pass  1:  I=   1 to  39 NPSUse=  4 ParTrn=T ParDer=T DoDerP=T.
</r**2>