 Entering Link 1 = d:\gmk\G03\l1.exe PID=      4176.
  
 Copyright (c) 1988,1990,1992,1993,1995,1998,2003,2004, Gaussian, Inc.
                  All Rights Reserved.
  
 This is the Gaussian(R) 03 program.  It is based on the
 the Gaussian(R) 98 system (copyright 1998, Gaussian, Inc.),
 the Gaussian(R) 94 system (copyright 1995, Gaussian, Inc.),
 the Gaussian 92(TM) system (copyright 1992, Gaussian, Inc.),
 the Gaussian 90(TM) system (copyright 1990, Gaussian, Inc.),
 the Gaussian 88(TM) system (copyright 1988, Gaussian, Inc.),
 the Gaussian 86(TM) system (copyright 1986, Carnegie Mellon
 University), and the Gaussian 82(TM) system (copyright 1983,
 Carnegie Mellon University). Gaussian is a federally registered
 trademark of Gaussian, Inc.
  
 This software contains proprietary and confidential information,
 including trade secrets, belonging to Gaussian, Inc.
  
 This software is provided under written license and may be
 used, copied, transmitted, or stored only in accord with that
 written license.
  
 The following legend is applicable only to US Government
 contracts under FAR:
  
                    RESTRICTED RIGHTS LEGEND
  
 Use, reproduction and disclosure by the US Government is
 subject to restrictions as set forth in subparagraphs (a)
 and (c) of the Commercial Computer Software - Restricted
 Rights clause in FAR 52.227-19.
  
 Gaussian, Inc.
 340 Quinnipiac St., Bldg. 40, Wallingford CT 06492
  
  
 ---------------------------------------------------------------
 Warning -- This program may not be used in any manner that
 competes with the business of Gaussian, Inc. or will provide
 assistance to any competitor of Gaussian, Inc.  The licensee
 of this program is prohibited from giving any competitor of
 Gaussian, Inc. access to this program.  By using this program,
 the user acknowledges that Gaussian, Inc. is engaged in the
 business of creating and licensing software in the field of
 computational chemistry and represents and warrants to the
 licensee that it is not a competitor of Gaussian, Inc. and that
 it will not use this program in any manner prohibited above.
 ---------------------------------------------------------------
  

 Cite this work as:
 Gaussian 03, Revision C.02,
 M. J. Frisch, G. W. Trucks, H. B. Schlegel, G. E. Scuseria, 
 M. A. Robb, J. R. Cheeseman, J. A. Montgomery, Jr., T. Vreven, 
 K. N. Kudin, J. C. Burant, J. M. Millam, S. S. Iyengar, J. Tomasi, 
 V. Barone, B. Mennucci, M. Cossi, G. Scalmani, N. Rega, 
 G. A. Petersson, H. Nakatsuji, M. Hada, M. Ehara, K. Toyota, 
 R. Fukuda, J. Hasegawa, M. Ishida, T. Nakajima, Y. Honda, O. Kitao, 
 H. Nakai, M. Klene, X. Li, J. E. Knox, H. P. Hratchian, J. B. Cross, 
 C. Adamo, J. Jaramillo, R. Gomperts, R. E. Stratmann, O. Yazyev, 
 A. J. Austin, R. Cammi, C. Pomelli, J. W. Ochterski, P. Y. Ayala, 
 K. Morokuma, G. A. Voth, P. Salvador, J. J. Dannenberg, 
 V. G. Zakrzewski, S. Dapprich, A. D. Daniels, M. C. Strain, 
 O. Farkas, D. K. Malick, A. D. Rabuck, K. Raghavachari, 
 J. B. Foresman, J. V. Ortiz, Q. Cui, A. G. Baboul, S. Clifford, 
 J. Cioslowski, B. B. Stefanov, G. Liu, A. Liashenko, P. Piskorz, 
 I. Komaromi, R. L. Martin, D. J. Fox, T. Keith, M. A. Al-Laham, 
 C. Y. Peng, A. Nanayakkara, M. Challacombe, P. M. W. Gill, 
 B. Johnson, W. Chen, M. W. Wong, C. Gonzalez, and J. A. Pople, 
 Gaussian, Inc., Wallingford CT, 2004.
 
 ******************************************
 Gaussian 03:  IA32W-G03RevC.02 12-Jun-2004
                30-Sep-2017 
 ******************************************
 %chk=ch3oh
 %mem=300mb
 %nproc=1
 Will use up to    1 processors via shared memory.
 -----------------------
 # b3lyp/6-31** opt freq
 -----------------------
 1/14=-1,18=20,26=3,38=1/1,3;
 2/9=110,17=6,18=5,40=1/2;
 3/5=1,6=6,7=101,11=2,16=1,25=1,30=1,74=-5/1,2,3;
 4//1;
 5/5=2,38=5/2;
 6/7=2,8=2,9=2,10=2,28=1/1;
 7//1,2,3,16;
 1/14=-1,18=20/3(1);
 99//99;
 2/9=110/2;
 3/5=1,6=6,7=101,11=2,16=1,25=1,30=1,74=-5/1,2,3;
 4/5=5,16=3/1;
 5/5=2,38=5/2;
 7//1,2,3,16;
 1/14=-1,18=20/3(-5);
 2/9=110/2;
 6/7=2,8=2,9=2,10=2,19=2,28=1/1;
 99/9=1/99;
 -----
 ch3oh
 -----
 Symbolic Z-matrix:
 Charge =  0 Multiplicity = 1
 C                    -0.0467    0.66      0. 
 O                    -0.0467   -0.7577    0. 
 H                    -1.0924    0.9785    0. 
 H                     0.4367    1.0873    0.8918 
 H                     0.4367    1.0873   -0.8918 
 H                     0.8726   -1.0517    0. 
 

 GradGradGradGradGradGradGradGradGradGradGradGradGradGradGradGradGradGrad
 Berny optimization.
 Initialization pass.
                           ----------------------------
                           !    Initial Parameters    !
                           ! (Angstroms and Degrees)  !
 --------------------------                            --------------------------
 ! Name  Definition              Value          Derivative Info.                !
 --------------------------------------------------------------------------------
 ! R1    R(1,2)                  1.4177         estimate D2E/DX2                !
 ! R2    R(1,3)                  1.0931         estimate D2E/DX2                !
 ! R3    R(1,4)                  1.1007         estimate D2E/DX2                !
 ! R4    R(1,5)                  1.1007         estimate D2E/DX2                !
 ! R5    R(2,6)                  0.9652         estimate D2E/DX2                !
 ! A1    A(2,1,3)              106.9397         estimate D2E/DX2                !
 ! A2    A(2,1,4)              112.8427         estimate D2E/DX2                !
 ! A3    A(2,1,5)              112.8427         estimate D2E/DX2                !
 ! A4    A(3,1,4)              107.8789         estimate D2E/DX2                !
 ! A5    A(3,1,5)              107.8789         estimate D2E/DX2                !
 ! A6    A(4,1,5)              108.2314         estimate D2E/DX2                !
 ! A7    A(1,2,6)              107.7347         estimate D2E/DX2                !
 ! D1    D(3,1,2,6)            180.0            estimate D2E/DX2                !
 ! D2    D(4,1,2,6)            -61.5401         estimate D2E/DX2                !
 ! D3    D(5,1,2,6)             61.5401         estimate D2E/DX2                !
 --------------------------------------------------------------------------------
 Trust Radius=3.00D-01 FncErr=1.00D-07 GrdErr=1.00D-06
 Number of steps in this run=  25 maximum allowed number of steps= 100.
 GradGradGradGradGradGradGradGradGradGradGradGradGradGradGradGradGradGrad

                          Input orientation:                          
 ---------------------------------------------------------------------
 Center     Atomic     Atomic              Coordinates (Angstroms)
 Number     Number      Type              X           Y           Z
 ---------------------------------------------------------------------
    1          6             0       -0.046700    0.660000    0.000000
    2          8             0       -0.046700   -0.757700    0.000000
    3          1             0       -1.092400    0.978500    0.000000
    4          1             0        0.436700    1.087300    0.891800
    5          1             0        0.436700    1.087300   -0.891800
    6          1             0        0.872600   -1.051700    0.000000
 ---------------------------------------------------------------------
                    Distance matrix (angstroms):
                    1          2          3          4          5
     1  C    0.000000
     2  O    1.417700   0.000000
     3  H    1.093129   2.026790   0.000000
     4  H    1.100713   2.105471   1.773497   0.000000
     5  H    1.100713   2.105471   1.773497   1.783600   0.000000
     6  H    1.942943   0.965168   2.825409   2.358100   2.358100
                    6
     6  H    0.000000
 Stoichiometry    CH4O
 Framework group  CS[SG(CH2O),X(H2)]
 Deg. of freedom     8
 Full point group                 CS      NOp   2
 Largest Abelian subgroup         CS      NOp   2
 Largest concise Abelian subgroup CS      NOp   2
                         Standard orientation:                         
 ---------------------------------------------------------------------
 Center     Atomic     Atomic              Coordinates (Angstroms)
 Number     Number      Type              X           Y           Z
 ---------------------------------------------------------------------
    1          6             0       -0.046689    0.660011    0.000000
    2          8             0       -0.046689   -0.757689    0.000000
    3          1             0       -1.092389    0.978511    0.000000
    4          1             0        0.436711    1.087311    0.891800
    5          1             0        0.436711    1.087311   -0.891800
    6          1             0        0.872611   -1.051689    0.000000
 ---------------------------------------------------------------------
 Rotational constants (GHZ):    127.7187251     24.7869628     23.9065737
 Standard basis: 6-31G(d,p) (6D, 7F)
 There are    35 symmetry adapted basis functions of A'  symmetry.
 There are    15 symmetry adapted basis functions of A"  symmetry.
 Integral buffers will be    262144 words long.
 Raffenetti 2 integral format.
 Two-electron integral symmetry is turned on.
    50 basis functions,    84 primitive gaussians,    50 cartesian basis functions
     9 alpha electrons        9 beta electrons
       nuclear repulsion energy        40.2503611672 Hartrees.
 NAtoms=    6 NActive=    6 NUniq=    5 SFac= 1.58D+00 NAtFMM=   60 Big=F
 One-electron integrals computed using PRISM.
 NBasis=    50 RedAO= T  NBF=    35    15
 NBsUse=    50 1.00D-06 NBFU=    35    15
 Harris functional with IExCor=  402 diagonalized for initial guess.
 ExpMin= 1.61D-01 ExpMax= 5.48D+03 ExpMxC= 8.25D+02 IAcc=1 IRadAn=         1 AccDes= 1.00D-06
 HarFok:  IExCor= 402 AccDes= 1.00D-06 IRadAn=         1 IDoV=1
 ScaDFX=  1.000000  1.000000  1.000000  1.000000
 Initial guess orbital symmetries:
       Occupied  (A') (A') (A') (A') (A') (A") (A') (A') (A")
       Virtual   (A') (A') (A') (A") (A') (A') (A') (A") (A') (A")
                 (A') (A') (A") (A') (A') (A') (A") (A') (A') (A")
                 (A') (A") (A') (A') (A") (A") (A') (A') (A") (A')
                 (A") (A') (A') (A") (A') (A') (A') (A") (A') (A')
                 (A')
 The electronic state of the initial guess is 1-A'.
 Requested convergence on RMS density matrix=1.00D-08 within 128 cycles.
 Requested convergence on MAX density matrix=1.00D-06.
 Requested convergence on             energy=1.00D-06.
 No special actions if energy rises.
 Keep R1 integrals in memory in canonical form, NReq=     1382396.
 Integral accuracy reduced to 1.0D-05 until final iterations.
 Initial convergence to 1.0D-05 achieved.  Increase integral accuracy.
 SCF Done:  E(RB+HF-LYP) =  -115.723965493     A.U. after   11 cycles
             Convg  =    0.7023D-08             -V/T =  2.0088
             S**2   =   0.0000

 **********************************************************************

            Population analysis using the SCF density.

 **********************************************************************

 Orbital symmetries:
       Occupied  (A') (A') (A') (A') (A') (A") (A') (A') (A")
       Virtual   (A') (A') (A') (A") (A') (A') (A') (A") (A') (A")
                 (A') (A') (A') (A") (A') (A') (A") (A') (A') (A")
                 (A') (A") (A') (A") (A') (A") (A') (A') (A") (A')
                 (A") (A') (A') (A") (A') (A') (A') (A") (A') (A')
                 (A')
 The electronic state is 1-A'.
 Alpha  occ. eigenvalues --  -19.14037 -10.22506  -1.01074  -0.67797  -0.50133
 Alpha  occ. eigenvalues --   -0.43325  -0.41897  -0.32941  -0.26494
 Alpha virt. eigenvalues --    0.07707   0.13102   0.16702   0.17525   0.20633
 Alpha virt. eigenvalues --    0.53176   0.55967   0.57164   0.76376   0.83177
 Alpha virt. eigenvalues --    0.84333   0.88112   0.94309   0.96508   1.00993
 Alpha virt. eigenvalues --    1.06743   1.36344   1.40240   1.52376   1.59030
 Alpha virt. eigenvalues --    1.81378   1.92400   1.98417   2.03907   2.05897
 Alpha virt. eigenvalues --    2.06671   2.33313   2.37272   2.54606   2.58240
 Alpha virt. eigenvalues --    2.66909   2.69646   2.78835   2.84824   2.97338
 Alpha virt. eigenvalues --    3.15588   3.35579   3.41198   3.51581   3.84032
 Alpha virt. eigenvalues --    4.40851
          Condensed to atoms (all electrons):
              1          2          3          4          5          6
     1  C    4.700806   0.260377   0.396995   0.374538   0.374538  -0.033380
     2  O    0.260377   8.095009  -0.037624  -0.036358  -0.036358   0.286625
     3  H    0.396995  -0.037624   0.588926  -0.038029  -0.038029   0.007022
     4  H    0.374538  -0.036358  -0.038029   0.668514  -0.052461  -0.005563
     5  H    0.374538  -0.036358  -0.038029  -0.052461   0.668514  -0.005563
     6  H   -0.033380   0.286625   0.007022  -0.005563  -0.005563   0.444767
 Mulliken atomic charges:
              1
     1  C   -0.073873
     2  O   -0.531672
     3  H    0.120739
     4  H    0.089358
     5  H    0.089358
     6  H    0.306091
 Sum of Mulliken charges=   0.00000
 Atomic charges with hydrogens summed into heavy atoms:
              1
     1  C    0.225581
     2  O   -0.225581
     3  H    0.000000
     4  H    0.000000
     5  H    0.000000
     6  H    0.000000
 Sum of Mulliken charges=   0.00000
 Electronic spatial extent (au):  <R**2>=    84.0179
 Charge=     0.0000 electrons
 Dipole moment (field-independent basis, Debye):
    X=     1.4121    Y=     0.8780    Z=     0.0000  Tot=     1.6628
 Quadrupole moment (field-independent basis, Debye-Ang):
   XX=   -11.5755   YY=   -12.9882   ZZ=   -13.5526
   XY=    -2.0935   XZ=     0.0000   YZ=     0.0000
 Traceless Quadrupole moment (field-independent basis, Debye-Ang):
   XX=     1.1300   YY=    -0.2828   ZZ=    -0.8472
   XY=    -2.0935   XZ=     0.0000   YZ=     0.0000
 Octapole moment (field-independent basis, Debye-Ang**2):
  XXX=     1.1424  YYY=    -4.0879  ZZZ=     0.0000  XYY=     2.1391
  XXY=    -2.2837  XXZ=     0.0000  XZZ=     0.5417  YZZ=    -0.6245
  YYZ=     0.0000  XYZ=     0.0000
 Hexadecapole moment (field-independent basis, Debye-Ang**3):
 XXXX=   -18.7024 YYYY=   -60.8111 ZZZZ=   -19.1516 XXXY=    -0.9945
 XXXZ=     0.0000 YYYX=    -1.1381 YYYZ=     0.0000 ZZZX=     0.0000
 ZZZY=     0.0000 XXYY=   -12.0616 XXZZ=    -6.6870 YYZZ=   -13.6807
 XXYZ=     0.0000 YYXZ=     0.0000 ZZXY=     0.7595
 N-N= 4.025036116723D+01 E-N=-3.516383158203D+02  KE= 1.147102595927D+02
 Symmetry A'   KE= 1.080821644298D+02
 Symmetry A"   KE= 6.628095162959D+00
 ***** Axes restored to original set *****
 -------------------------------------------------------------------
 Center     Atomic                   Forces (Hartrees/Bohr)
 Number     Number              X              Y              Z
 -------------------------------------------------------------------
    1          6           0.000052394    0.000410407    0.000000000
    2          8          -0.000038173   -0.000185963    0.000000000
    3          1           0.000019493   -0.000094814    0.000000000
    4          1          -0.000023749   -0.000070064   -0.000045397
    5          1          -0.000023749   -0.000070064    0.000045397
    6          1           0.000013785    0.000010498    0.000000000
 -------------------------------------------------------------------
 Cartesian Forces:  Max     0.000410407 RMS     0.000113518

 GradGradGradGradGradGradGradGradGradGradGradGradGradGradGradGradGradGrad
 Berny optimization.
 Internal  Forces:  Max     0.000177696 RMS     0.000067547
 Search for a local minimum.
 Step number   1 out of a maximum of  25
 All quantities printed in internal units (Hartrees-Bohrs-Radians)
 Second derivative matrix not updated -- first step.
 The second derivative matrix:
                          R1        R2        R3        R4        R5
           R1           0.42809
           R2           0.00000   0.34454
           R3           0.00000   0.00000   0.33603
           R4           0.00000   0.00000   0.00000   0.33603
           R5           0.00000   0.00000   0.00000   0.00000   0.54377
           A1           0.00000   0.00000   0.00000   0.00000   0.00000
           A2           0.00000   0.00000   0.00000   0.00000   0.00000
           A3           0.00000   0.00000   0.00000   0.00000   0.00000
           A4           0.00000   0.00000   0.00000   0.00000   0.00000
           A5           0.00000   0.00000   0.00000   0.00000   0.00000
           A6           0.00000   0.00000   0.00000   0.00000   0.00000
           A7           0.00000   0.00000   0.00000   0.00000   0.00000
           D1           0.00000   0.00000   0.00000   0.00000   0.00000
           D2           0.00000   0.00000   0.00000   0.00000   0.00000
           D3           0.00000   0.00000   0.00000   0.00000   0.00000
                          A1        A2        A3        A4        A5
           A1           0.16000
           A2           0.00000   0.16000
           A3           0.00000   0.00000   0.16000
           A4           0.00000   0.00000   0.00000   0.16000
           A5           0.00000   0.00000   0.00000   0.00000   0.16000
           A6           0.00000   0.00000   0.00000   0.00000   0.00000
           A7           0.00000   0.00000   0.00000   0.00000   0.00000
           D1           0.00000   0.00000   0.00000   0.00000   0.00000
           D2           0.00000   0.00000   0.00000   0.00000   0.00000
           D3           0.00000   0.00000   0.00000   0.00000   0.00000
                          A6        A7        D1        D2        D3
           A6           0.16000
           A7           0.00000   0.16000
           D1           0.00000   0.00000   0.01458
           D2           0.00000   0.00000   0.00000   0.01458
           D3           0.00000   0.00000   0.00000   0.00000   0.01458
     Eigenvalues ---    0.01458   0.09771   0.10475   0.16000   0.16000
     Eigenvalues ---    0.16000   0.16000   0.33603   0.33603   0.34454
     Eigenvalues ---    0.42809   0.543771000.000001000.000001000.00000
 RFO step:  Lambda=-2.61787707D-07.
 Linear search not attempted -- first point.
 Iteration  1 RMS(Cart)=  0.00021814 RMS(Int)=  0.00000009
 Iteration  2 RMS(Cart)=  0.00000008 RMS(Int)=  0.00000005
 Variable       Old X    -DE/DX   Delta X   Delta X   Delta X     New X
                                 (Linear)    (Quad)   (Total)
    R1        2.67906   0.00018   0.00000   0.00042   0.00042   2.67948
    R2        2.06571  -0.00005   0.00000  -0.00014  -0.00014   2.06558
    R3        2.08005  -0.00007   0.00000  -0.00022  -0.00022   2.07983
    R4        2.08005  -0.00007   0.00000  -0.00022  -0.00022   2.07983
    R5        1.82390   0.00001   0.00000   0.00001   0.00001   1.82391
    A1        1.86645  -0.00010   0.00000  -0.00064  -0.00064   1.86581
    A2        1.96948  -0.00004   0.00000  -0.00022  -0.00022   1.96926
    A3        1.96948  -0.00004   0.00000  -0.00022  -0.00022   1.96926
    A4        1.88284   0.00006   0.00000   0.00038   0.00038   1.88322
    A5        1.88284   0.00006   0.00000   0.00038   0.00038   1.88322
    A6        1.88899   0.00005   0.00000   0.00036   0.00036   1.88935
    A7        1.88033  -0.00002   0.00000  -0.00012  -0.00012   1.88021
    D1        3.14159   0.00000   0.00000   0.00000   0.00000   3.14159
    D2       -1.07408  -0.00001   0.00000  -0.00007  -0.00007  -1.07415
    D3        1.07408   0.00001   0.00000   0.00007   0.00007   1.07415
         Item               Value     Threshold  Converged?
 Maximum Force            0.000178     0.000450     YES
 RMS     Force            0.000068     0.000300     YES
 Maximum Displacement     0.000553     0.001800     YES
 RMS     Displacement     0.000218     0.001200     YES
 Predicted change in Energy=-1.308929D-07
 Optimization completed.
    -- Stationary point found.
                           ----------------------------
                           !   Optimized Parameters   !
                           ! (Angstroms and Degrees)  !
 --------------------------                            --------------------------
 ! Name  Definition              Value          Derivative Info.                !
 --------------------------------------------------------------------------------
 ! R1    R(1,2)                  1.4177         -DE/DX =    0.0002              !
 ! R2    R(1,3)                  1.0931         -DE/DX =    0.0                 !
 ! R3    R(1,4)                  1.1007         -DE/DX =   -0.0001              !
 ! R4    R(1,5)                  1.1007         -DE/DX =   -0.0001              !
 ! R5    R(2,6)                  0.9652         -DE/DX =    0.0                 !
 ! A1    A(2,1,3)              106.9397         -DE/DX =   -0.0001              !
 ! A2    A(2,1,4)              112.8427         -DE/DX =    0.0                 !
 ! A3    A(2,1,5)              112.8427         -DE/DX =    0.0                 !
 ! A4    A(3,1,4)              107.8789         -DE/DX =    0.0001              !
 ! A5    A(3,1,5)              107.8789         -DE/DX =    0.0001              !
 ! A6    A(4,1,5)              108.2314         -DE/DX =    0.0001              !
 ! A7    A(1,2,6)              107.7347         -DE/DX =    0.0                 !
 ! D1    D(3,1,2,6)            180.0            -DE/DX =    0.0                 !
 ! D2    D(4,1,2,6)            -61.5401         -DE/DX =    0.0                 !
 ! D3    D(5,1,2,6)             61.5401         -DE/DX =    0.0                 !
 --------------------------------------------------------------------------------
 GradGradGradGradGradGradGradGradGradGradGradGradGradGradGradGradGradGrad

 1|1|UNPC-UNK|FOpt|RB3LYP|6-31G(d,p)|C1H4O1|PCUSER|30-Sep-2017|0||# B3L
 YP/6-31** OPT FREQ||ch3oh||0,1|C,-0.0467,0.66,0.|O,-0.0467,-0.7577,0.|
 H,-1.0924,0.9785,0.|H,0.4367,1.0873,0.8918|H,0.4367,1.0873,-0.8918|H,0
 .8726,-1.0517,0.||Version=IA32W-G03RevC.02|State=1-A'|HF=-115.7239655|
 RMSD=7.023e-009|RMSF=1.135e-004|Dipole=0.5555522,0.3454159,0.|PG=CS [S
 G(C1H2O1),X(H2)]||@


 When I told the people of Northern Ireland that I was
 an atheist, a woman in the audience stood up and said,
 "Yes, but is it the God of the Catholics or the God
 of the Protestants in whom you don't believe?"
                               -- Quentin Crisp
 Job cpu time:  0 days  0 hours  0 minutes  8.0 seconds.
 File lengths (MBytes):  RWF=     11 Int=      0 D2E=      0 Chk=      4 Scr=      1
 Normal termination of Gaussian 03 at Sat Sep 30 17:01:18 2017.
 Link1:  Proceeding to internal job step number  2.
 --------------------------------------------------------------------
 #N Geom=AllCheck Guess=Read SCRF=Check GenChk RB3LYP/6-31G(d,p) Freq
 --------------------------------------------------------------------
 1/10=4,29=7,30=1,38=1,40=1,46=1/1,3;
 2/40=1/2;
 3/5=1,6=6,7=101,11=2,16=1,25=1,30=1,70=2,71=2,74=-5/1,2,3;
 4/5=1,7=1/1;
 5/5=2,38=6/2;
 8/6=4,10=90,11=11/1;
 11/6=1,8=1,9=11,15=111,16=1/1,2,10;
 10/6=1/2;
 6/7=2,8=2,9=2,10=2,18=1,28=1/1;
 7/8=1,10=1,25=1/1,2,3,16;
 1/10=4,30=1,46=1/3;
 99//99;
 -----
 ch3oh
 -----
 Redundant internal coordinates taken from checkpoint file:
 ch3oh.chk
 Charge =  0 Multiplicity = 1
 C,0,-0.0467,0.66,0.
 O,0,-0.0467,-0.7577,0.
 H,0,-1.0924,0.9785,0.
 H,0,0.4367,1.0873,0.8918
 H,0,0.4367,1.0873,-0.8918
 H,0,0.8726,-1.0517,0.
 Recover connectivity data from disk.

 GradGradGradGradGradGradGradGradGradGradGradGradGradGradGradGradGradGrad
 Berny optimization.
 Initialization pass.
                           ----------------------------
                           !    Initial Parameters    !
                           ! (Angstroms and Degrees)  !
 --------------------------                            --------------------------
 ! Name  Definition              Value          Derivative Info.                !
 --------------------------------------------------------------------------------
 ! R1    R(1,2)                  1.4177         calculate D2E/DX2 analytically  !
 ! R2    R(1,3)                  1.0931         calculate D2E/DX2 analytically  !
 ! R3    R(1,4)                  1.1007         calculate D2E/DX2 analytically  !
 ! R4    R(1,5)                  1.1007         calculate D2E/DX2 analytically  !
 ! R5    R(2,6)                  0.9652         calculate D2E/DX2 analytically  !
 ! A1    A(2,1,3)              106.9397         calculate D2E/DX2 analytically  !
 ! A2    A(2,1,4)              112.8427         calculate D2E/DX2 analytically  !
 ! A3    A(2,1,5)              112.8427         calculate D2E/DX2 analytically  !
 ! A4    A(3,1,4)              107.8789         calculate D2E/DX2 analytically  !
 ! A5    A(3,1,5)              107.8789         calculate D2E/DX2 analytically  !
 ! A6    A(4,1,5)              108.2314         calculate D2E/DX2 analytically  !
 ! A7    A(1,2,6)              107.7347         calculate D2E/DX2 analytically  !
 ! D1    D(3,1,2,6)            180.0            calculate D2E/DX2 analytically  !
 ! D2    D(4,1,2,6)            -61.5401         calculate D2E/DX2 analytically  !
 ! D3    D(5,1,2,6)             61.5401         calculate D2E/DX2 analytically  !
 --------------------------------------------------------------------------------
 Trust Radius=3.00D-01 FncErr=1.00D-07 GrdErr=1.00D-07
 Number of steps in this run=   2 maximum allowed number of steps=   2.
 GradGradGradGradGradGradGradGradGradGradGradGradGradGradGradGradGradGrad

                          Input orientation:                          
 ---------------------------------------------------------------------
 Center     Atomic     Atomic              Coordinates (Angstroms)
 Number     Number      Type              X           Y           Z
 ---------------------------------------------------------------------
    1          6             0       -0.046700    0.660000    0.000000
    2          8             0       -0.046700   -0.757700    0.000000
    3          1             0       -1.092400    0.978500    0.000000
    4          1             0        0.436700    1.087300    0.891800
    5          1             0        0.436700    1.087300   -0.891800
    6          1             0        0.872600   -1.051700    0.000000
 ---------------------------------------------------------------------
                    Distance matrix (angstroms):
                    1          2          3          4          5
     1  C    0.000000
     2  O    1.417700   0.000000
     3  H    1.093129   2.026790   0.000000
     4  H    1.100713   2.105471   1.773497   0.000000
     5  H    1.100713   2.105471   1.773497   1.783600   0.000000
     6  H    1.942943   0.965168   2.825409   2.358100   2.358100
                    6
     6  H    0.000000
 Stoichiometry    CH4O
 Framework group  CS[SG(CH2O),X(H2)]
 Deg. of freedom     8
 Full point group                 CS      NOp   2
 Largest Abelian subgroup         CS      NOp   2
 Largest concise Abelian subgroup CS      NOp   2
                         Standard orientation:                         
 ---------------------------------------------------------------------
 Center     Atomic     Atomic              Coordinates (Angstroms)
 Number     Number      Type              X           Y           Z
 ---------------------------------------------------------------------
    1          6             0       -0.046689    0.660011    0.000000
    2          8             0       -0.046689   -0.757689    0.000000
    3          1             0       -1.092389    0.978511    0.000000
    4          1             0        0.436711    1.087311    0.891800
    5          1             0        0.436711    1.087311   -0.891800
    6          1             0        0.872611   -1.051689    0.000000
 ---------------------------------------------------------------------
 Rotational constants (GHZ):    127.7187251     24.7869628     23.9065737
 Standard basis: 6-31G(d,p) (6D, 7F)
 There are    35 symmetry adapted basis functions of A'  symmetry.
 There are    15 symmetry adapted basis functions of A"  symmetry.
 Integral buffers will be    262144 words long.
 Raffenetti 2 integral format.
 Two-electron integral symmetry is turned on.
    50 basis functions,    84 primitive gaussians,    50 cartesian basis functions
     9 alpha electrons        9 beta electrons
       nuclear repulsion energy        40.2503611672 Hartrees.
 NAtoms=    6 NActive=    6 NUniq=    5 SFac= 1.58D+00 NAtFMM=   60 Big=F
 One-electron integrals computed using PRISM.
 NBasis=    50 RedAO= T  NBF=    35    15
 NBsUse=    50 1.00D-06 NBFU=    35    15
 Initial guess read from the checkpoint file:
 ch3oh.chk
 Initial guess orbital symmetries:
       Occupied  (A') (A') (A') (A') (A') (A") (A') (A') (A")
       Virtual   (A') (A') (A') (A") (A') (A') (A') (A") (A') (A")
                 (A') (A') (A') (A") (A') (A') (A") (A') (A') (A")
                 (A') (A") (A') (A") (A') (A") (A') (A') (A") (A')
                 (A") (A') (A') (A") (A') (A') (A') (A") (A') (A')
                 (A')
 Requested convergence on RMS density matrix=1.00D-08 within 128 cycles.
 Requested convergence on MAX density matrix=1.00D-06.
 Requested convergence on             energy=1.00D-06.
 No special actions if energy rises.
 Keep R1 integrals in memory in canonical form, NReq=     1382396.
 SCF Done:  E(RB+HF-LYP) =  -115.723965493     A.U. after    1 cycles
             Convg  =    0.1476D-08             -V/T =  2.0088
             S**2   =   0.0000
 Range of M.O.s used for correlation:     1    50
 NBasis=    50 NAE=     9 NBE=     9 NFC=     0 NFV=     0
 NROrb=     50 NOA=     9 NOB=     9 NVA=    41 NVB=    41
 Symmetrizing basis deriv contribution to polar:
 IMax=3 JMax=2 DiffMx= 0.00D+00
 G2DrvN: will do    7 centers at a time, making    1 passes doing MaxLOS=2.
 FoFDir/FoFCou used for L=0 through L=2.
 DoAtom=TTTTTT
          Differentiating once with respect to electric field.
                with respect to dipole field.
          Differentiating once with respect to nuclear coordinates.
          Store integrals in memory, NReq=     1243872.
          There are  18 degrees of freedom in the 1st order CPHF.
    18 vectors were produced by pass  0.
 AX will form  18 AO Fock derivatives at one time.
    18 vectors were produced by pass  1.
    18 vectors were produced by pass  2.
    18 vectors were produced by pass  3.
    18 vectors were produced by pass  4.
     5 vectors were produced by pass  5.
 Inv2:  IOpt= 1 Iter= 1 AM= 1.81D-15 Conv= 1.00D-12.
 Inverted reduced A of dimension   95 with in-core refinement.
 Isotropic polarizability for W=    0.000000       16.02 Bohr**3.
 End of Minotr Frequency-dependent properties file   721 does not exist.

 **********************************************************************

            Population analysis using the SCF density.

 **********************************************************************

 Orbital symmetries:
       Occupied  (A') (A') (A') (A') (A') (A") (A') (A') (A")
       Virtual   (A') (A') (A') (A") (A') (A') (A') (A") (A') (A")
                 (A') (A') (A') (A") (A') (A') (A") (A') (A') (A")
                 (A') (A") (A') (A") (A') (A") (A') (A') (A") (A')
                 (A") (A') (A') (A") (A') (A') (A') (A") (A') (A')
                 (A')
 The electronic state is 1-A'.
 Alpha  occ. eigenvalues --  -19.14037 -10.22506  -1.01074  -0.67797  -0.50133
 Alpha  occ. eigenvalues --   -0.43325  -0.41897  -0.32941  -0.26494
 Alpha virt. eigenvalues --    0.07707   0.13102   0.16702   0.17525   0.20633
 Alpha virt. eigenvalues --    0.53176   0.55967   0.57164   0.76376   0.83177
 Alpha virt. eigenvalues --    0.84333   0.88112   0.94309   0.96508   1.00993
 Alpha virt. eigenvalues --    1.06743   1.36344   1.40240   1.52376   1.59030
 Alpha virt. eigenvalues --    1.81378   1.92400   1.98417   2.03907   2.05897
 Alpha virt. eigenvalues --    2.06671   2.33313   2.37272   2.54606   2.58240
 Alpha virt. eigenvalues --    2.66909   2.69646   2.78835   2.84824   2.97338
 Alpha virt. eigenvalues --    3.15588   3.35579   3.41198   3.51581   3.84032
 Alpha virt. eigenvalues --    4.40851
          Condensed to atoms (all electrons):
              1          2          3          4          5          6
     1  C    4.700806   0.260377   0.396995   0.374538   0.374538  -0.033380
     2  O    0.260377   8.095009  -0.037624  -0.036358  -0.036358   0.286625
     3  H    0.396995  -0.037624   0.588926  -0.038029  -0.038029   0.007022
     4  H    0.374538  -0.036358  -0.038029   0.668514  -0.052461  -0.005563
     5  H    0.374538  -0.036358  -0.038029  -0.052461   0.668514  -0.005563
     6  H   -0.033380   0.286625   0.007022  -0.005563  -0.005563   0.444767
 Mulliken atomic charges:
              1
     1  C   -0.073874
     2  O   -0.531672
     3  H    0.120739
     4  H    0.089358
     5  H    0.089358
     6  H    0.306091
 Sum of Mulliken charges=   0.00000
 Atomic charges with hydrogens summed into heavy atoms:
              1
     1  C    0.225581
     2  O   -0.225581
     3  H    0.000000
     4  H    0.000000
     5  H    0.000000
     6  H    0.000000
 Sum of Mulliken charges=   0.00000
 APT atomic charges:
              1
     1  C    0.518382
     2  O   -0.565854
     3  H   -0.022801
     4  H   -0.083890
     5  H   -0.083890
     6  H    0.238053
 Sum of APT charges=   0.00000
 APT Atomic charges with hydrogens summed into heavy atoms:
              1
     1  C    0.327801
     2  O   -0.327801
     3  H    0.000000
     4  H    0.000000
     5  H    0.000000
     6  H    0.000000
 Sum of APT charges=   0.00000
 Electronic spatial extent (au):  <R**2>=    84.0179
 Charge=     0.0000 electrons
 Dipole moment (field-independent basis, Debye):
    X=     1.4121    Y=     0.8780    Z=     0.0000  Tot=     1.6628
 Quadrupole moment (field-independent basis, Debye-Ang):
   XX=   -11.5755   YY=   -12.9882   ZZ=   -13.5526
   XY=    -2.0935   XZ=     0.0000   YZ=     0.0000
 Traceless Quadrupole moment (field-independent basis, Debye-Ang):
   XX=     1.1300   YY=    -0.2828   ZZ=    -0.8472
   XY=    -2.0935   XZ=     0.0000   YZ=     0.0000
 Octapole moment (field-independent basis, Debye-Ang**2):
  XXX=     1.1424  YYY=    -4.0879  ZZZ=     0.0000  XYY=     2.1391
  XXY=    -2.2837  XXZ=     0.0000  XZZ=     0.5417  YZZ=    -0.6245
  YYZ=     0.0000  XYZ=     0.0000
 Hexadecapole moment (field-independent basis, Debye-Ang**3):
 XXXX=   -18.7024 YYYY=   -60.8111 ZZZZ=   -19.1516 XXXY=    -0.9945
 XXXZ=     0.0000 YYYX=    -1.1381 YYYZ=     0.0000 ZZZX=     0.0000
 ZZZY=     0.0000 XXYY=   -12.0616 XXZZ=    -6.6870 YYZZ=   -13.6807
 XXYZ=     0.0000 YYXZ=     0.0000 ZZXY=     0.7595
 N-N= 4.025036116723D+01 E-N=-3.516383168690D+02  KE= 1.147102599992D+02
 Symmetry A'   KE= 1.080821647188D+02
 Symmetry A"   KE= 6.628095280409D+00
  Exact polarizability:  16.434  -1.108  17.323   0.000   0.000  14.298
 Approx polarizability:  21.026  -0.805  21.494   0.000   0.000  17.444
 Full mass-weighted force constant matrix:
 Low frequencies ---  -13.6647   -4.9356    0.0013    0.0016    0.0017   14.6376
 Low frequencies ---  334.9961 1062.5360 1095.6444
 Diagonal vibrational polarizability:
        0.1766365       3.5803881      30.1622299
 Harmonic frequencies (cm**-1), IR intensities (KM/Mole), Raman scattering
 activities (A**4/AMU), depolarization ratios for plane and unpolarized
 incident light, reduced masses (AMU), force constants (mDyne/A),
 and normal coordinates:
                     1                      2                      3
                    A"                     A'                     A'
 Frequencies --   334.9816              1062.5360              1095.6444
 Red. masses --     1.0693                 1.8830                 1.9025
 Frc consts  --     0.0707                 1.2525                 1.3456
 IR Inten    --   124.6359               118.1493                 4.7925
 Atom AN      X      Y      Z        X      Y      Z        X      Y      Z
   1   6     0.00   0.00   0.00     0.07  -0.17   0.00     0.07   0.21   0.00
   2   8     0.00   0.00   0.06     0.00   0.18   0.00    -0.01  -0.15   0.00
   3   1     0.00   0.00  -0.30    -0.09  -0.65   0.00    -0.10  -0.37   0.00
   4   1    -0.23   0.04   0.10    -0.22   0.13   0.03    -0.22   0.41   0.04
   5   1     0.23  -0.04   0.10    -0.22   0.13  -0.03    -0.22   0.41  -0.04
   6   1     0.00   0.00  -0.88    -0.25  -0.55   0.00    -0.14  -0.57   0.00
                     4                      5                      6
                    A"                     A'                     A'
 Frequencies --  1179.3872              1385.2855              1500.1692
 Red. masses --     1.2716                 1.2849                 1.1328
 Frc consts  --     1.0421                 1.4528                 1.5021
 IR Inten    --     0.5698                27.6268                 6.9944
 Atom AN      X      Y      Z        X      Y      Z        X      Y      Z
   1   6     0.00   0.00   0.14     0.12  -0.02   0.00    -0.03   0.10   0.00
   2   8     0.00   0.00  -0.06    -0.08  -0.02   0.00     0.00   0.01   0.00
   3   1     0.00   0.00  -0.27     0.01  -0.42   0.00    -0.23  -0.64   0.00
   4   1     0.05   0.64  -0.19    -0.21   0.12   0.11     0.32  -0.40   0.04
   5   1    -0.05  -0.64  -0.19    -0.21   0.12  -0.11     0.32  -0.40  -0.04
   6   1     0.00   0.00   0.00     0.20   0.79   0.00     0.00   0.02   0.00
                     7                      8                      9
                    A"                     A'                     A'
 Frequencies --  1508.6313              1526.8585              2987.5370
 Red. masses --     1.0487                 1.0540                 1.0378
 Frc consts  --     1.4062                 1.4477                 5.4575
 IR Inten    --     1.4982                 4.2908                64.1861
 Atom AN      X      Y      Z        X      Y      Z        X      Y      Z
   1   6     0.00   0.00  -0.06     0.04   0.05   0.00    -0.03  -0.04   0.00
   2   8     0.00   0.00  -0.01     0.02   0.01   0.00     0.00   0.00   0.00
   3   1     0.00   0.00   0.73     0.06   0.19   0.00    -0.25   0.07   0.00
   4   1    -0.40   0.27   0.06    -0.39  -0.39   0.41     0.29   0.25   0.56
   5   1     0.40  -0.27   0.06    -0.39  -0.39  -0.41     0.29   0.25  -0.56
   6   1     0.00   0.00  -0.01    -0.02  -0.11   0.00     0.00   0.00   0.00
                    10                     11                     12
                    A"                     A'                     A'
 Frequencies --  3032.7385              3121.4156              3825.9280
 Red. masses --     1.1051                 1.0961                 1.0665
 Frc consts  --     5.9885                 6.2924                 9.1979
 IR Inten    --    83.0203                34.3205                13.2631
 Atom AN      X      Y      Z        X      Y      Z        X      Y      Z
   1   6     0.00   0.00   0.09    -0.09   0.01   0.00     0.00   0.00   0.00
   2   8     0.00   0.00   0.00     0.00   0.00   0.00     0.06  -0.02   0.00
   3   1     0.00   0.00   0.03     0.93  -0.27   0.00    -0.02   0.00   0.00
   4   1    -0.33  -0.26  -0.57     0.06   0.06   0.14     0.00   0.00   0.00
   5   1     0.33   0.26  -0.57     0.06   0.06  -0.14     0.00   0.00   0.00
   6   1     0.00   0.00   0.00    -0.02   0.00   0.00    -0.95   0.32   0.00

 -------------------
 - Thermochemistry -
 -------------------
 Temperature   298.150 Kelvin.  Pressure   1.00000 Atm.
 Atom  1 has atomic number  6 and mass  12.00000
 Atom  2 has atomic number  8 and mass  15.99491
 Atom  3 has atomic number  1 and mass   1.00783
 Atom  4 has atomic number  1 and mass   1.00783
 Atom  5 has atomic number  1 and mass   1.00783
 Atom  6 has atomic number  1 and mass   1.00783
 Molecular mass:    32.02621 amu.
 Principal axes and moments of inertia in atomic units:
                           1         2         3
     EIGENVALUES --    14.13059  72.81010  75.49142
           X           -0.05431   0.99852   0.00000
           Y            0.99852   0.05431   0.00000
           Z            0.00000   0.00000   1.00000
 This molecule is an asymmetric top.
 Rotational symmetry number  1.
 Rotational temperatures (Kelvin)      6.12953     1.18959     1.14733
 Rotational constants (GHZ):         127.71873    24.78696    23.90657
 Zero-point vibrational energy     134945.4 (Joules/Mol)
                                   32.25273 (Kcal/Mol)
 Warning -- explicit consideration of   1 degrees of freedom as
           vibrations may cause significant error
 Vibrational temperatures:    481.96  1528.75  1576.39  1696.87  1993.11
          (Kelvin)           2158.41  2170.58  2196.81  4298.39  4363.43
                             4491.02  5504.65
 
 Zero-point correction=                           0.051398 (Hartree/Particle)
 Thermal correction to Energy=                    0.054703
 Thermal correction to Enthalpy=                  0.055647
 Thermal correction to Gibbs Free Energy=         0.028667
 Sum of electronic and zero-point Energies=           -115.672567
 Sum of electronic and thermal Energies=              -115.669262
 Sum of electronic and thermal Enthalpies=            -115.668318
 Sum of electronic and thermal Free Energies=         -115.695298
 
                     E (Thermal)             CV                S
                      KCal/Mol        Cal/Mol-Kelvin    Cal/Mol-Kelvin
 Total                   34.327              8.711             56.785
 Electronic               0.000              0.000              0.000
 Translational            0.889              2.981             36.324
 Rotational               0.889              2.981             18.991
 Vibrational             32.549              2.749              1.470
 Vibration  1             0.716              1.606              1.236
                       Q            Log10(Q)             Ln(Q)
 Total Bot       0.651815D-13        -13.185876        -30.361601
 Total V=0       0.285438D+11         10.455512         24.074707
 Vib (Bot)       0.290028D-23        -23.537560        -54.197236
 Vib (Bot)  1    0.556063D+00         -0.254876         -0.586874
 Vib (V=0)       0.127007D+01          0.103827          0.239072
 Vib (V=0)  1    0.124780D+01          0.096145          0.221383
 Electronic      0.100000D+01          0.000000          0.000000
 Translational   0.712383D+07          6.852714         15.778956
 Rotational      0.315480D+04          3.498971          8.056679
 ***** Axes restored to original set *****
 -------------------------------------------------------------------
 Center     Atomic                   Forces (Hartrees/Bohr)
 Number     Number              X              Y              Z
 -------------------------------------------------------------------
    1          6           0.000052410    0.000410420    0.000000000
    2          8          -0.000038169   -0.000185978    0.000000000
    3          1           0.000019479   -0.000094811    0.000000000
    4          1          -0.000023751   -0.000070065   -0.000045398
    5          1          -0.000023751   -0.000070065    0.000045398
    6          1           0.000013781    0.000010500    0.000000000
 -------------------------------------------------------------------
 Cartesian Forces:  Max     0.000410420 RMS     0.000113523

 GradGradGradGradGradGradGradGradGradGradGradGradGradGradGradGradGradGrad
 Berny optimization.
 Internal  Forces:  Max     0.000177709 RMS     0.000067549
 Search for a local minimum.
 Step number   1 out of a maximum of   2
 All quantities printed in internal units (Hartrees-Bohrs-Radians)
 Second derivative matrix not updated -- analytic derivatives used.
 The second derivative matrix:
                          R1        R2        R3        R4        R5
           R1           0.36028
           R2           0.01226   0.34336
           R3           0.01825   0.00331   0.32225
           R4           0.01825   0.00331   0.00453   0.32225
           R5          -0.00366  -0.00186  -0.00014  -0.00014   0.52572
           A1           0.02944   0.00235  -0.00435  -0.00435   0.00788
           A2           0.02537  -0.00446  -0.00187  -0.00433  -0.00393
           A3           0.02537  -0.00446  -0.00433  -0.00187  -0.00393
           A4          -0.02792   0.00628   0.00797  -0.00574  -0.00048
           A5          -0.02792   0.00628  -0.00574   0.00797  -0.00048
           A6          -0.02843  -0.00480   0.00843   0.00843   0.00124
           A7           0.05216   0.00309   0.00005   0.00005   0.01623
           D1           0.00000   0.00000  -0.00555   0.00555   0.00000
           D2          -0.00074   0.00667   0.00036  -0.00679   0.00223
           D3           0.00074  -0.00667   0.00679  -0.00036  -0.00223
                          A1        A2        A3        A4        A5
           A1           0.13853
           A2          -0.03010   0.13725
           A3          -0.03010  -0.03425   0.13725
           A4          -0.03931  -0.03590  -0.00106   0.07275
           A5          -0.03931  -0.00106  -0.03590   0.00400   0.07275
           A6          -0.00042  -0.04126  -0.04126   0.00478   0.00478
           A7           0.02096  -0.00586  -0.00586  -0.00541  -0.00541
           D1           0.00000  -0.01906   0.01906  -0.02121   0.02121
           D2           0.02367  -0.00365  -0.02132   0.02215   0.00019
           D3          -0.02367   0.02132   0.00365  -0.00019  -0.02215
                          A6        A7        D1        D2        D3
           A6           0.07519
           A7           0.00160   0.18509
           D1           0.00000   0.00000   0.02570
           D2          -0.01811   0.00349  -0.01130   0.02905
           D3           0.01811  -0.00349  -0.01130  -0.01453   0.02905
     Eigenvalues ---    0.00316   0.09062   0.09076   0.13280   0.15816
     Eigenvalues ---    0.18519   0.20202   0.31907   0.32319   0.34236
     Eigenvalues ---    0.40224   0.526891000.000001000.000001000.00000
 Angle between quadratic step and forces=  20.21 degrees.
 Linear search not attempted -- first point.
 Iteration  1 RMS(Cart)=  0.00027039 RMS(Int)=  0.00000016
 Iteration  2 RMS(Cart)=  0.00000013 RMS(Int)=  0.00000008
 Variable       Old X    -DE/DX   Delta X   Delta X   Delta X     New X
                                 (Linear)    (Quad)   (Total)
    R1        2.67906   0.00018   0.00000   0.00081   0.00081   2.67987
    R2        2.06571  -0.00005   0.00000  -0.00017  -0.00017   2.06554
    R3        2.08005  -0.00007   0.00000  -0.00030  -0.00030   2.07974
    R4        2.08005  -0.00007   0.00000  -0.00030  -0.00030   2.07974
    R5        1.82390   0.00001   0.00000   0.00003   0.00003   1.82393
    A1        1.86645  -0.00010   0.00000  -0.00073  -0.00073   1.86572
    A2        1.96948  -0.00004   0.00000  -0.00040  -0.00040   1.96907
    A3        1.96948  -0.00004   0.00000  -0.00040  -0.00040   1.96907
    A4        1.88284   0.00006   0.00000   0.00054   0.00054   1.88338
    A5        1.88284   0.00006   0.00000   0.00054   0.00054   1.88338
    A6        1.88899   0.00005   0.00000   0.00053   0.00053   1.88952
    A7        1.88033  -0.00002   0.00000  -0.00024  -0.00024   1.88008
    D1        3.14159   0.00000   0.00000   0.00000   0.00000   3.14159
    D2       -1.07408  -0.00001   0.00000  -0.00004  -0.00004  -1.07411
    D3        1.07408   0.00001   0.00000   0.00004   0.00004   1.07411
         Item               Value     Threshold  Converged?
 Maximum Force            0.000178     0.000450     YES
 RMS     Force            0.000068     0.000300     YES
 Maximum Displacement     0.000774     0.001800     YES
 RMS     Displacement     0.000270     0.001200     YES
 Predicted change in Energy=-1.994662D-07
 Optimization completed.
    -- Stationary point found.
                           ----------------------------
                           !   Optimized Parameters   !
                           ! (Angstroms and Degrees)  !
 --------------------------                            --------------------------
 ! Name  Definition              Value          Derivative Info.                !
 --------------------------------------------------------------------------------
 ! R1    R(1,2)                  1.4177         -DE/DX =    0.0002              !
 ! R2    R(1,3)                  1.0931         -DE/DX =    0.0                 !
 ! R3    R(1,4)                  1.1007         -DE/DX =   -0.0001              !
 ! R4    R(1,5)                  1.1007         -DE/DX =   -0.0001              !
 ! R5    R(2,6)                  0.9652         -DE/DX =    0.0                 !
 ! A1    A(2,1,3)              106.9397         -DE/DX =   -0.0001              !
 ! A2    A(2,1,4)              112.8427         -DE/DX =    0.0                 !
 ! A3    A(2,1,5)              112.8427         -DE/DX =    0.0                 !
 ! A4    A(3,1,4)              107.8789         -DE/DX =    0.0001              !
 ! A5    A(3,1,5)              107.8789         -DE/DX =    0.0001              !
 ! A6    A(4,1,5)              108.2314         -DE/DX =    0.0001              !
 ! A7    A(1,2,6)              107.7347         -DE/DX =    0.0                 !
 ! D1    D(3,1,2,6)            180.0            -DE/DX =    0.0                 !
 ! D2    D(4,1,2,6)            -61.5401         -DE/DX =    0.0                 !
 ! D3    D(5,1,2,6)             61.5401         -DE/DX =    0.0                 !
 --------------------------------------------------------------------------------
 GradGradGradGradGradGradGradGradGradGradGradGradGradGradGradGradGradGrad

 1|1|UNPC-UNK|Freq|RB3LYP|6-31G(d,p)|C1H4O1|PCUSER|30-Sep-2017|0||#N GE
 OM=ALLCHECK GUESS=READ SCRF=CHECK GENCHK RB3LYP/6-31G(D,P) FREQ||ch3oh
 ||0,1|C,-0.0466888889,0.6600111111,0.|O,-0.0466888889,-0.7576888889,0.
 |H,-1.0923888889,0.9785111111,0.|H,0.4367111111,1.0873111111,0.8918|H,
 0.4367111111,1.0873111111,-0.8918|H,0.8726111111,-1.0516888889,0.||Ver
 sion=IA32W-G03RevC.02|State=1-A'|HF=-115.7239655|RMSD=1.476e-009|RMSF=
 1.135e-004|Dipole=0.5555523,0.345416,0.|DipoleDeriv=0.2881185,-0.02317
 39,0.,-0.003528,0.847636,0.,0.,0.,0.4193904,-0.2287473,0.0435491,0.,0.
 0004838,-0.9182151,0.,0.,0.,-0.5505995,-0.1344754,0.0716387,0.,0.04457
 9,0.002543,0.,0.,0.,0.0635293,-0.00834,-0.0629254,-0.0950676,-0.021975
 5,-0.0957649,-0.072364,-0.0899804,-0.0973808,-0.1475652,-0.00834,-0.06
 29254,0.0950676,-0.0219755,-0.0957649,0.072364,0.0899804,0.0973808,-0.
 1475652,0.0917842,0.0338369,0.,0.0024163,0.2595659,0.,0.,0.,0.3628101|
 Polar=16.4344324,-1.1084173,17.3226227,0.,0.,14.2982104|PG=CS [SG(C1H2
 O1),X(H2)]|NImag=0||0.60507567,-0.01147905,0.48419692,0.,0.,0.55607039
 ,-0.09409107,0.02520850,0.,0.55937515,-0.02425759,-0.24524093,0.,-0.13
 196624,0.41245004,0.,0.,-0.06212449,0.,0.,0.04582446,-0.30246021,0.068
 73136,0.,0.00394501,0.00478864,0.,0.32062033,0.05643968,-0.06351902,0.
 ,0.03956477,-0.02281163,0.,-0.07675799,0.08448062,0.,0.,-0.05203649,0.
 ,0.,0.00187482,0.,0.,0.04768556,-0.10353385,-0.03627386,-0.08953448,0.
 00527904,-0.00217832,0.00192634,-0.01239719,-0.01011164,-0.02711975,0.
 10227944,-0.03349077,-0.07704200,-0.06436613,-0.01567589,-0.03304496,-
 0.02867818,0.00228409,0.00489588,0.00691418,0.04354224,0.09657340,-0.0
 9050541,-0.06616078,-0.22042399,0.00310385,-0.00552274,0.00887542,0.00
 076310,0.00117257,0.00096334,0.09984445,0.07875822,0.23236351,-0.10353
 385,-0.03627386,0.08953448,0.00527904,-0.00217832,-0.00192634,-0.01239
 719,-0.01011164,0.02711975,0.00755133,0.00495456,-0.01335830,0.1022794
 4,-0.03349077,-0.07704200,0.06436613,-0.01567589,-0.03304496,0.0286781
 8,0.00228409,0.00489588,-0.00691418,0.00495456,0.00702943,-0.00746783,
 0.04354224,0.09657340,0.09050541,0.06616078,-0.22042399,-0.00310385,0.
 00552274,0.00887542,-0.00076310,-0.00117257,0.00096334,0.01335830,0.00
 746783,-0.02212929,-0.09984445,-0.07875822,0.23236351,-0.00145669,-0.0
 0991310,0.,-0.47978717,0.15579183,0.,0.00268924,0.00097683,0.,0.000821
 22,-0.00161423,0.00015232,0.00082122,-0.00161423,-0.00015232,0.4769121
 8,0.04627850,-0.02135296,0.,0.09854473,-0.07830755,0.,-0.00133019,-0.0
 0794173,0.,0.00006703,0.00158826,-0.00077945,0.00006703,0.00158826,0.0
 0077945,-0.14362710,0.10442572,0.,0.,-0.00106144,0.,0.,-0.00332563,0.,
 0.,0.00054943,0.00152514,-0.00009593,0.00035101,-0.00152514,0.00009593
 ,0.00035101,0.,0.,0.00313562||-0.00005241,-0.00041042,0.,0.00003817,0.
 00018598,0.,-0.00001948,0.00009481,0.,0.00002375,0.00007007,0.00004540
 ,0.00002375,0.00007007,-0.00004540,-0.00001378,-0.00001050,0.|||@


 Boundary, n.  In political geography, an imaginary
 line between two nations, separating the imaginary
 rights of one from the imaginary rights of another.
                               -- Ambrose Bierce
 Job cpu time:  0 days  0 hours  0 minutes 16.0 seconds.
 File lengths (MBytes):  RWF=     11 Int=      0 D2E=      0 Chk=      4 Scr=      1
 Normal termination of Gaussian 03 at Sat Sep 30 17:01:34 2017.
